{
    "mp_id": "mp-555082",
    "nelements": 4,
    "nsites": 28,
    "elements": [
        "B",
        "Cs",
        "Li",
        "O"
    ],
    "structure": {
        "@module": "pymatgen.core.structure",
        "@class": "Structure",
        "charge": null,
        "lattice": {
            "matrix": [
                [
                    5.8407492,
                    -4.75061012,
                    -0.0014187
                ],
                [
                    5.8407492,
                    4.75061012,
                    -0.0014187
                ],
                [
                    -5.37684119,
                    0.0,
                    5.90946658
                ]
            ],
            "a": 7.52878806596764,
            "b": 7.52878806596764,
            "c": 7.989506645758392,
            "alpha": 121.48234568773196,
            "beta": 121.48234568773196,
            "gamma": 78.24679663050884,
            "volume": 327.8689068566838
        },
        "sites": [
            {
                "species": [
                    {
                        "element": "Cs",
                        "occu": 1
                    }
                ],
                "abc": [
                    0.68193246,
                    0.31806754,
                    0.25
                ],
                "xyz": [
                    4.4965389025,
                    -1.7285803712649905,
                    1.475947945
                ],
                "label": "Cs",
                "properties": {}
            },
            {
                "species": [
                    {
                        "element": "Cs",
                        "occu": 1
                    }
                ],
                "abc": [
                    0.31806754,
                    0.68193246,
                    0.75
                ],
                "xyz": [
                    1.8081183075,
                    1.7285803712649905,
                    4.430681235
                ],
                "label": "Cs",
                "properties": {}
            },
            {
                "species": [
                    {
                        "element": "Li",
                        "occu": 1
                    }
                ],
                "abc": [
                    0.73698473,
                    0.46875033,
                    0.73027175
                ],
                "xyz": [
                    3.1158408618135693,
                    -1.2742770551721279,
                    4.313805924613493
                ],
                "label": "Li",
                "properties": {}
            },
            {
                "species": [
                    {
                        "element": "Li",
                        "occu": 1
                    }
                ],
                "abc": [
                    0.92810498,
                    0.29568939,
                    0.96157986
                ],
                "xyz": [
                    1.9776137888195713,
                    -3.004359901899771,
                    5.6806878495983595
                ],
                "label": "Li",
                "properties": {}
            },
            {
                "species": [
                    {
                        "element": "Li",
                        "occu": 1
                    }
                ],
                "abc": [
                    0.26301527,
                    0.53124967,
                    0.26972825
                ],
                "xyz": [
                    3.188816348186431,
                    1.2742770551721279,
                    1.592823255386507
                ],
                "label": "Li",
                "properties": {}
            },
            {
                "species": [
                    {
                        "element": "Li",
                        "occu": 1
                    }
                ],
                "abc": [
                    0.53124967,
                    0.26301527,
                    0.76972825
                ],
                "xyz": [
                    0.5003957531864307,
                    -1.2742770551721279,
                    4.547556545386507
                ],
                "label": "Li",
                "properties": {}
            },
            {
                "species": [
                    {
                        "element": "Li",
                        "occu": 1
                    }
                ],
                "abc": [
                    0.0,
                    0.0,
                    0.5
                ],
                "xyz": [
                    -2.688420595,
                    0.0,
                    2.95473329
                ],
                "label": "Li",
                "properties": {}
            },
            {
                "species": [
                    {
                        "element": "Li",
                        "occu": 1
                    }
                ],
                "abc": [
                    0.07189502,
                    0.70431061,
                    0.03842014
                ],
                "xyz": [
                    4.32704342118043,
                    3.0043599018997704,
                    0.2259413304016402
                ],
                "label": "Li",
                "properties": {}
            },
            {
                "species": [
                    {
                        "element": "Li",
                        "occu": 1
                    }
                ],
                "abc": [
                    0.46875033,
                    0.73698473,
                    0.23027175
                ],
                "xyz": [
                    5.8042614568135695,
                    1.2742770551721279,
                    1.3590726346134931
                ],
                "label": "Li",
                "properties": {}
            },
            {
                "species": [
                    {
                        "element": "Li",
                        "occu": 1
                    }
                ],
                "abc": [
                    0.29568939,
                    0.92810498,
                    0.46157986
                ],
                "xyz": [
                    4.6660343838195715,
                    3.004359901899771,
                    2.72595455959836
                ],
                "label": "Li",
                "properties": {}
            },
            {
                "species": [
                    {
                        "element": "Li",
                        "occu": 1
                    }
                ],
                "abc": [
                    0.0,
                    0.0,
                    0.0
                ],
                "xyz": [
                    0.0,
                    0.0,
                    0.0
                ],
                "label": "Li",
                "properties": {}
            },
            {
                "species": [
                    {
                        "element": "Li",
                        "occu": 1
                    }
                ],
                "abc": [
                    0.70431061,
                    0.07189502,
                    0.53842014
                ],
                "xyz": [
                    1.6386228261804288,
                    -3.0043599018997704,
                    3.1806746204016405
                ],
                "label": "Li",
                "properties": {}
            },
            {
                "species": [
                    {
                        "element": "B",
                        "occu": 1
                    }
                ],
                "abc": [
                    0.31243171,
                    0.16842626,
                    0.31130803
                ],
                "xyz": [
                    1.134716965109368,
                    -0.6841137481051538,
                    1.8389822061685983
                ],
                "label": "B",
                "properties": {}
            },
            {
                "species": [
                    {
                        "element": "B",
                        "occu": 1
                    }
                ],
                "abc": [
                    0.16842626,
                    0.31243171,
                    0.81130803
                ],
                "xyz": [
                    -1.5537036298906317,
                    0.6841137481051538,
                    4.793715496168598
                ],
                "label": "B",
                "properties": {}
            },
            {
                "species": [
                    {
                        "element": "B",
                        "occu": 1
                    }
                ],
                "abc": [
                    0.68756829,
                    0.83157374,
                    0.68869197
                ],
                "xyz": [
                    5.16994024489063,
                    0.6841137481051538,
                    4.067646973831402
                ],
                "label": "B",
                "properties": {}
            },
            {
                "species": [
                    {
                        "element": "B",
                        "occu": 1
                    }
                ],
                "abc": [
                    0.83157374,
                    0.68756829,
                    0.18869197
                ],
                "xyz": [
                    7.858360839890631,
                    -0.6841137481051538,
                    1.1129136838314015
                ],
                "label": "B",
                "properties": {}
            },
            {
                "species": [
                    {
                        "element": "O",
                        "occu": 1
                    }
                ],
                "abc": [
                    0.7284542,
                    0.83375802,
                    0.29736527
                ],
                "xyz": [
                    7.525603941983753,
                    0.5002573929666578,
                    1.7550538146411627
                ],
                "label": "O",
                "properties": {}
            },
            {
                "species": [
                    {
                        "element": "O",
                        "occu": 1
                    }
                ],
                "abc": [
                    0.26485922,
                    0.95403494,
                    0.21373525
                ],
                "xyz": [
                    5.970034593949725,
                    3.2740051498902867,
                    1.261332071698153
                ],
                "label": "O",
                "properties": {}
            },
            {
                "species": [
                    {
                        "element": "O",
                        "occu": 1
                    }
                ],
                "abc": [
                    0.73514078,
                    0.04596506,
                    0.78626475
                ],
                "xyz": [
                    0.3346226160502761,
                    -3.2740051498902867,
                    4.645297108301847
                ],
                "label": "O",
                "properties": {}
            },
            {
                "species": [
                    {
                        "element": "O",
                        "occu": 1
                    }
                ],
                "abc": [
                    0.83375802,
                    0.7284542,
                    0.79736527
                ],
                "xyz": [
                    4.837183346983752,
                    -0.5002573929666578,
                    4.709787104641163
                ],
                "label": "O",
                "properties": {}
            },
            {
                "species": [
                    {
                        "element": "O",
                        "occu": 1
                    }
                ],
                "abc": [
                    0.95403494,
                    0.26485922,
                    0.71373525
                ],
                "xyz": [
                    3.281613998949724,
                    -3.2740051498902867,
                    4.216065361698154
                ],
                "label": "O",
                "properties": {}
            },
            {
                "species": [
                    {
                        "element": "O",
                        "occu": 1
                    }
                ],
                "abc": [
                    0.04596506,
                    0.73514078,
                    0.28626475
                ],
                "xyz": [
                    3.023043211050276,
                    3.2740051498902867,
                    1.690563818301847
                ],
                "label": "O",
                "properties": {}
            },
            {
                "species": [
                    {
                        "element": "O",
                        "occu": 1
                    }
                ],
                "abc": [
                    0.26958438,
                    0.49829857,
                    0.00791254
                ],
                "xyz": [
                    4.442467254916618,
                    1.086531945601603,
                    0.045669495151748195
                ],
                "label": "O",
                "properties": {}
            },
            {
                "species": [
                    {
                        "element": "O",
                        "occu": 1
                    }
                ],
                "abc": [
                    0.2715458,
                    0.16624198,
                    0.70263473
                ],
                "xyz": [
                    -1.2209467319837528,
                    -0.5002573929666585,
                    4.151575365358838
                ],
                "label": "O",
                "properties": {}
            },
            {
                "species": [
                    {
                        "element": "O",
                        "occu": 1
                    }
                ],
                "abc": [
                    0.49829857,
                    0.26958438,
                    0.50791254
                ],
                "xyz": [
                    1.754046659916618,
                    -1.086531945601603,
                    3.000402785151748
                ],
                "label": "O",
                "properties": {}
            },
            {
                "species": [
                    {
                        "element": "O",
                        "occu": 1
                    }
                ],
                "abc": [
                    0.50170143,
                    0.73041562,
                    0.49208746
                ],
                "xyz": [
                    4.550610550083384,
                    1.0865319456016032,
                    2.9062263948482516
                ],
                "label": "O",
                "properties": {}
            },
            {
                "species": [
                    {
                        "element": "O",
                        "occu": 1
                    }
                ],
                "abc": [
                    0.73041562,
                    0.50170143,
                    0.99208746
                ],
                "xyz": [
                    1.862189955083383,
                    -1.0865319456016032,
                    5.860959684848252
                ],
                "label": "O",
                "properties": {}
            },
            {
                "species": [
                    {
                        "element": "O",
                        "occu": 1
                    }
                ],
                "abc": [
                    0.16624198,
                    0.2715458,
                    0.20263473
                ],
                "xyz": [
                    1.4674738630162474,
                    0.5002573929666585,
                    1.1968420753588376
                ],
                "label": "O",
                "properties": {}
            }
        ]
    },
    "spacegroup": {
        "source": "spglib",
        "symbol": "C2/c",
        "number": 15,
        "point_group": "2/m",
        "crystal_system": "monoclinic",
        "hall": "-C 2yc"
    },
    "dielectric": {
        "epsilon_ionic": [
            [
                11.07170693,
                1e-08,
                6.17027897
            ],
            [
                1e-08,
                6.04272906,
                -0.0
            ],
            [
                6.17027897,
                -0.0,
                12.69314457
            ]
        ],
        "epsilon_ionic_avg": 9.935860186666668,
        "epsilon_ionic_eig": [
            18.10573737426617,
            5.659114125733832,
            6.04272906
        ],
        "epsilon_electronic": [
            [
                2.59974092,
                0.0,
                0.05013713
            ],
            [
                0.0,
                2.64987995,
                0.0
            ],
            [
                0.05013746,
                0.0,
                2.67403146
            ]
        ],
        "epsilon_electronic_avg": 2.6412174433333333,
        "epsilon_electronic_eig": [
            2.5744881176478613,
            2.6992842623521387,
            2.64987995
        ]
    },
    "phonon": {
        "lowest_freq": -0.2000501017982557,
        "frequency": [
            -0.2000501017982557,
            -0.18514144991825135,
            -0.07901400843098831,
            0.7234272147710933,
            0.7555254646925158,
            1.243828503852228,
            1.4281131151964714,
            1.8715326704333017,
            2.2208989056177004,
            3.264930169550551,
            3.290301221522773,
            3.344369771836745,
            3.6707945762946217,
            3.943807710298507,
            4.82346545125719,
            4.884366484283452,
            4.966545087779699,
            5.542454254088288,
            5.681816947862272,
            5.748168673485057,
            6.287342675052967,
            6.750380785810953,
            7.140747220634491,
            7.584617826636893,
            7.705372887965066,
            8.217830294117077,
            8.225406633613897,
            8.63900694549375,
            8.749405368421302,
            9.372771190146874,
            9.501987688833973,
            9.613600140760814,
            10.171261162482775,
            10.411168675913151,
            10.562277608421134,
            10.95810340403752,
            10.994255373072734,
            11.533626922019675,
            11.673045092303514,
            11.7246006068613,
            11.918751452330557,
            12.194833788056842,
            12.371835734352615,
            12.653099236531993,
            13.151553073600889,
            13.351224501826328,
            13.357865247154777,
            13.715437053699645,
            14.0110163553882,
            14.097333966237722,
            15.448536411500408,
            15.683119123634993,
            16.026297137947225,
            16.54509236155561,
            16.567453069997143,
            16.802414226496065,
            17.110801157708277,
            17.41844584189072,
            17.557697305908913,
            17.792228313736295,
            18.09108099453223,
            18.296551725808136,
            18.34555340469985,
            18.459883564299094,
            18.859019894290974,
            18.877180704167277,
            19.685835644104525,
            19.94366916375224,
            21.61870548219061,
            21.66598709420405,
            21.675189405970304,
            21.838766242538483,
            27.57170537111824,
            27.619118952691093,
            27.64979922065843,
            27.729483962520803,
            35.31865145786357,
            35.88725038647797,
            35.97096702454145,
            36.89407632059905,
            38.423989276255085,
            38.710262819617,
            38.87391156257934,
            39.713048444516055
        ]
    },
    "born_effective_charge": {
        "avg_abs_trace": 1.4272361904761905,
        "tensors": [
            [
                [
                    1.28848,
                    3e-05,
                    -0.18835
                ],
                [
                    -0.0,
                    1.33589,
                    0.0
                ],
                [
                    -0.18179,
                    -2e-05,
                    1.36402
                ]
            ],
            [
                [
                    1.28848,
                    -3e-05,
                    -0.18835
                ],
                [
                    -0.0,
                    1.33573,
                    0.0
                ],
                [
                    -0.18179,
                    2e-05,
                    1.36402
                ]
            ],
            [
                [
                    1.02019,
                    -0.02629,
                    0.0115
                ],
                [
                    0.00286,
                    1.01338,
                    9e-05
                ],
                [
                    -0.01361,
                    -0.02256,
                    1.05943
                ]
            ],
            [
                [
                    1.05916,
                    0.02307,
                    0.02192
                ],
                [
                    0.01991,
                    1.01149,
                    -0.03003
                ],
                [
                    0.04894,
                    -0.0228,
                    1.00137
                ]
            ],
            [
                [
                    1.02019,
                    -0.02629,
                    0.01149
                ],
                [
                    0.00288,
                    1.01338,
                    9e-05
                ],
                [
                    -0.01361,
                    -0.02256,
                    1.05943
                ]
            ],
            [
                [
                    1.02019,
                    0.02629,
                    0.01149
                ],
                [
                    -0.00286,
                    1.01338,
                    -9e-05
                ],
                [
                    -0.01361,
                    0.02256,
                    1.05943
                ]
            ],
            [
                [
                    0.89877,
                    0.00904,
                    0.22588
                ],
                [
                    0.0161,
                    0.8829,
                    0.14346
                ],
                [
                    0.23892,
                    0.13276,
                    1.03034
                ]
            ],
            [
                [
                    1.05915,
                    0.02307,
                    0.02193
                ],
                [
                    0.01991,
                    1.01147,
                    -0.03002
                ],
                [
                    0.04895,
                    -0.0228,
                    1.00137
                ]
            ],
            [
                [
                    1.02019,
                    0.02629,
                    0.0115
                ],
                [
                    -0.00288,
                    1.01338,
                    -9e-05
                ],
                [
                    -0.01361,
                    0.02256,
                    1.05943
                ]
            ],
            [
                [
                    1.05916,
                    -0.02307,
                    0.02192
                ],
                [
                    -0.01991,
                    1.01147,
                    0.03002
                ],
                [
                    0.04894,
                    0.0228,
                    1.00137
                ]
            ],
            [
                [
                    0.89877,
                    -0.00904,
                    0.22588
                ],
                [
                    -0.0161,
                    0.8829,
                    -0.14346
                ],
                [
                    0.23892,
                    -0.13276,
                    1.03034
                ]
            ],
            [
                [
                    1.05915,
                    -0.02307,
                    0.02193
                ],
                [
                    -0.01991,
                    1.01149,
                    0.03003
                ],
                [
                    0.04895,
                    0.0228,
                    1.00137
                ]
            ],
            [
                [
                    1.51278,
                    0.72357,
                    0.851
                ],
                [
                    0.80618,
                    1.97587,
                    -0.55324
                ],
                [
                    0.84285,
                    -0.57902,
                    1.93211
                ]
            ],
            [
                [
                    1.51278,
                    -0.72357,
                    0.851
                ],
                [
                    -0.80619,
                    1.97594,
                    0.55327
                ],
                [
                    0.84285,
                    0.57902,
                    1.93211
                ]
            ],
            [
                [
                    1.51281,
                    0.72356,
                    0.85101
                ],
                [
                    0.80619,
                    1.97594,
                    -0.55327
                ],
                [
                    0.84284,
                    -0.579,
                    1.93212
                ]
            ],
            [
                [
                    1.51281,
                    -0.72356,
                    0.85101
                ],
                [
                    -0.80618,
                    1.97587,
                    0.55324
                ],
                [
                    0.84284,
                    0.579,
                    1.93212
                ]
            ],
            [
                [
                    -1.33654,
                    0.31701,
                    -0.0394
                ],
                [
                    0.3028,
                    -1.98297,
                    -0.51822
                ],
                [
                    -0.07174,
                    -0.4909,
                    -1.56331
                ]
            ],
            [
                [
                    -1.78157,
                    -0.49952,
                    -0.41193
                ],
                [
                    -0.52434,
                    -1.6803,
                    -0.16226
                ],
                [
                    -0.42924,
                    -0.15009,
                    -1.55776
                ]
            ],
            [
                [
                    -1.78154,
                    -0.49949,
                    -0.41198
                ],
                [
                    -0.52425,
                    -1.68033,
                    -0.16217
                ],
                [
                    -0.42929,
                    -0.15003,
                    -1.55782
                ]
            ],
            [
                [
                    -1.33654,
                    -0.31701,
                    -0.0394
                ],
                [
                    -0.30284,
                    -1.98301,
                    0.51825
                ],
                [
                    -0.07174,
                    0.4909,
                    -1.56331
                ]
            ],
            [
                [
                    -1.78157,
                    0.49952,
                    -0.41193
                ],
                [
                    0.52425,
                    -1.68033,
                    0.16217
                ],
                [
                    -0.42924,
                    0.15009,
                    -1.55776
                ]
            ],
            [
                [
                    -1.78154,
                    0.49949,
                    -0.41198
                ],
                [
                    0.52434,
                    -1.6803,
                    0.16226
                ],
                [
                    -0.42929,
                    0.15003,
                    -1.55782
                ]
            ],
            [
                [
                    -1.5677,
                    -0.06709,
                    -0.45183
                ],
                [
                    -0.03671,
                    -1.44681,
                    -0.25528
                ],
                [
                    -0.40561,
                    -0.23454,
                    -2.06898
                ]
            ],
            [
                [
                    -1.33652,
                    0.31712,
                    -0.03937
                ],
                [
                    0.30284,
                    -1.98301,
                    -0.51825
                ],
                [
                    -0.07177,
                    -0.49074,
                    -1.56316
                ]
            ],
            [
                [
                    -1.5677,
                    0.06709,
                    -0.45183
                ],
                [
                    0.03664,
                    -1.44681,
                    0.25525
                ],
                [
                    -0.40561,
                    0.23454,
                    -2.06898
                ]
            ],
            [
                [
                    -1.56765,
                    0.0671,
                    -0.4519
                ],
                [
                    0.03671,
                    -1.44681,
                    0.25528
                ],
                [
                    -0.40583,
                    0.23466,
                    -2.06918
                ]
            ],
            [
                [
                    -1.56765,
                    -0.0671,
                    -0.4519
                ],
                [
                    -0.03664,
                    -1.44681,
                    -0.25525
                ],
                [
                    -0.40583,
                    -0.23466,
                    -2.06918
                ]
            ],
            [
                [
                    -1.33652,
                    -0.31712,
                    -0.03937
                ],
                [
                    -0.3028,
                    -1.98297,
                    0.51822
                ],
                [
                    -0.07177,
                    0.49074,
                    -1.56316
                ]
            ]
        ]
    },
    "band_gap": 3.5903,
    "is_direct": true,
    "formula": "CsLi5(BO3)2"
}