{
    "mp_id": "mp-5652",
    "nelements": 3,
    "nsites": 11,
    "elements": [
        "O",
        "Si",
        "Y"
    ],
    "structure": {
        "@module": "pymatgen.core.structure",
        "@class": "Structure",
        "charge": null,
        "lattice": {
            "matrix": [
                [
                    3.42679842,
                    -4.48301112,
                    0.00026724
                ],
                [
                    3.42679842,
                    4.48301112,
                    0.00026724
                ],
                [
                    -0.96937246,
                    0.0,
                    4.63990975
                ]
            ],
            "a": 5.642724181171304,
            "b": 5.642724181171304,
            "c": 4.7400891821095,
            "alpha": 97.13159003715452,
            "beta": 97.13159003715452,
            "gamma": 105.21165403662715,
            "volume": 142.5623937091164
        },
        "sites": [
            {
                "species": [
                    {
                        "element": "Y",
                        "occu": 1
                    }
                ],
                "abc": [
                    0.30649783,
                    0.69350217,
                    0.0
                ],
                "xyz": [
                    3.4267984200000003,
                    1.7349447597082608,
                    0.00026724
                ],
                "label": "Y",
                "properties": {}
            },
            {
                "species": [
                    {
                        "element": "Y",
                        "occu": 1
                    }
                ],
                "abc": [
                    0.69350217,
                    0.30649783,
                    0.0
                ],
                "xyz": [
                    3.4267984200000003,
                    -1.7349447597082608,
                    0.00026724
                ],
                "label": "Y",
                "properties": {}
            },
            {
                "species": [
                    {
                        "element": "Si",
                        "occu": 1
                    }
                ],
                "abc": [
                    0.21959287,
                    0.21959287,
                    0.41212079
                ],
                "xyz": [
                    1.1055024558990874,
                    0.0,
                    1.9123206396958603
                ],
                "label": "Si",
                "properties": {}
            },
            {
                "species": [
                    {
                        "element": "Si",
                        "occu": 1
                    }
                ],
                "abc": [
                    0.78040713,
                    0.78040713,
                    0.58787921
                ],
                "xyz": [
                    4.778721924100912,
                    0.0,
                    2.72812359030414
                ],
                "label": "Si",
                "properties": {}
            },
            {
                "species": [
                    {
                        "element": "O",
                        "occu": 1
                    }
                ],
                "abc": [
                    0.91398691,
                    0.6132219,
                    0.7793329
                ],
                "xyz": [
                    4.477972886686146,
                    -1.348332884336911,
                    3.6164424524881595
                ],
                "label": "O",
                "properties": {}
            },
            {
                "species": [
                    {
                        "element": "O",
                        "occu": 1
                    }
                ],
                "abc": [
                    0.3867781,
                    0.08601309,
                    0.2206671
                ],
                "xyz": [
                    1.4062514933138537,
                    -1.3483328843369113,
                    1.0240017775118406
                ],
                "label": "O",
                "properties": {}
            },
            {
                "species": [
                    {
                        "element": "O",
                        "occu": 1
                    }
                ],
                "abc": [
                    0.08601309,
                    0.3867781,
                    0.2206671
                ],
                "xyz": [
                    1.4062514933138537,
                    1.3483328843369113,
                    1.0240017775118406
                ],
                "label": "O",
                "properties": {}
            },
            {
                "species": [
                    {
                        "element": "O",
                        "occu": 1
                    }
                ],
                "abc": [
                    0.6132219,
                    0.91398691,
                    0.7793329
                ],
                "xyz": [
                    4.477972886686146,
                    1.348332884336911,
                    3.6164424524881595
                ],
                "label": "O",
                "properties": {}
            },
            {
                "species": [
                    {
                        "element": "O",
                        "occu": 1
                    }
                ],
                "abc": [
                    0.0,
                    0.0,
                    0.5
                ],
                "xyz": [
                    -0.48468623,
                    0.0,
                    2.319954875
                ],
                "label": "O",
                "properties": {}
            },
            {
                "species": [
                    {
                        "element": "O",
                        "occu": 1
                    }
                ],
                "abc": [
                    0.61701738,
                    0.61701738,
                    0.28428551
                ],
                "xyz": [
                    3.9532098216220244,
                    0.0,
                    1.319388893081985
                ],
                "label": "O",
                "properties": {}
            },
            {
                "species": [
                    {
                        "element": "O",
                        "occu": 1
                    }
                ],
                "abc": [
                    0.38298262,
                    0.38298262,
                    0.71571449
                ],
                "xyz": [
                    1.9310145583779752,
                    0.0,
                    3.321055336918015
                ],
                "label": "O",
                "properties": {}
            }
        ]
    },
    "spacegroup": {
        "source": "spglib",
        "symbol": "C2/m",
        "number": 12,
        "point_group": "2/m",
        "crystal_system": "monoclinic",
        "hall": "-C 2y"
    },
    "dielectric": {
        "epsilon_ionic": [
            [
                6.41705231,
                -0.0,
                -0.40381931
            ],
            [
                -0.0,
                5.70319688,
                0.0
            ],
            [
                -0.40381931,
                0.0,
                5.35447643
            ]
        ],
        "epsilon_ionic_avg": 5.82490854,
        "epsilon_ionic_eig": [
            6.553100050387554,
            5.218428689612446,
            5.70319688
        ],
        "epsilon_electronic": [
            [
                3.36578916,
                0.0,
                0.04948026
            ],
            [
                0.0,
                3.30692682,
                0.0
            ],
            [
                0.04948252,
                0.0,
                3.13733639
            ]
        ],
        "epsilon_electronic_avg": 3.270017456666667,
        "epsilon_electronic_eig": [
            3.3760460067431683,
            3.1270795432568317,
            3.30692682
        ]
    },
    "phonon": {
        "lowest_freq": -0.07812040630274193,
        "frequency": [
            -0.07812040630274193,
            -0.07532298464349198,
            -0.01640450910955634,
            3.358653900916567,
            3.9065503919353985,
            4.533994904458568,
            5.381100046687977,
            5.463397966319627,
            6.2997653647755785,
            6.450168130801374,
            6.795657001706862,
            7.813213982050771,
            8.336027869858652,
            9.509550264700549,
            10.465427292673235,
            10.546361653456314,
            10.629350257456169,
            11.739541109963584,
            12.292457976394433,
            13.568567333642015,
            13.869439726549354,
            14.080620935995615,
            14.156335196471206,
            15.021766253647066,
            16.2223822774016,
            19.147737725433345,
            24.690494353172237,
            25.99108191032967,
            26.62935206665679,
            26.844835224940326,
            26.927997839848793,
            27.67692085044192,
            31.97066576614395
        ]
    },
    "born_effective_charge": {
        "avg_abs_trace": 2.6128833333333334,
        "tensors": [
            [
                [
                    4.00437,
                    -0.0,
                    0.14981
                ],
                [
                    -0.0,
                    3.89257,
                    0.0
                ],
                [
                    0.16811,
                    -3e-05,
                    3.26186
                ]
            ],
            [
                [
                    4.00437,
                    0.0,
                    0.14981
                ],
                [
                    -0.0,
                    3.89282,
                    0.0
                ],
                [
                    0.16811,
                    3e-05,
                    3.26186
                ]
            ],
            [
                [
                    3.57012,
                    -0.0,
                    -0.03899
                ],
                [
                    -1e-05,
                    3.24194,
                    -1e-05
                ],
                [
                    -0.10265,
                    0.0,
                    3.58531
                ]
            ],
            [
                [
                    3.57011,
                    -0.0,
                    -0.03906
                ],
                [
                    1e-05,
                    3.24194,
                    1e-05
                ],
                [
                    -0.10267,
                    0.0,
                    3.58532
                ]
            ],
            [
                [
                    -2.13439,
                    0.12339,
                    0.12651
                ],
                [
                    0.21853,
                    -2.21507,
                    0.73673
                ],
                [
                    0.1249,
                    0.70556,
                    -1.80562
                ]
            ],
            [
                [
                    -2.13436,
                    -0.12344,
                    0.12657
                ],
                [
                    -0.21853,
                    -2.21507,
                    -0.73673
                ],
                [
                    0.1248,
                    -0.70552,
                    -1.80557
                ]
            ],
            [
                [
                    -2.13436,
                    0.12344,
                    0.12657
                ],
                [
                    0.21853,
                    -2.21502,
                    0.73674
                ],
                [
                    0.1248,
                    0.70552,
                    -1.80557
                ]
            ],
            [
                [
                    -2.13439,
                    -0.12339,
                    0.12651
                ],
                [
                    -0.21853,
                    -2.21502,
                    -0.73674
                ],
                [
                    0.1249,
                    -0.70556,
                    -1.80562
                ]
            ],
            [
                [
                    -3.30328,
                    -0.0,
                    0.56816
                ],
                [
                    -0.0,
                    -1.21112,
                    0.0
                ],
                [
                    0.52202,
                    0.0,
                    -1.42396
                ]
            ],
            [
                [
                    -1.65404,
                    -0.0,
                    -0.64794
                ],
                [
                    -2e-05,
                    -2.09898,
                    -2e-05
                ],
                [
                    -0.57623,
                    0.0,
                    -2.52403
                ]
            ],
            [
                [
                    -1.65412,
                    -0.0,
                    -0.64794
                ],
                [
                    2e-05,
                    -2.09898,
                    2e-05
                ],
                [
                    -0.57609,
                    0.0,
                    -2.52399
                ]
            ]
        ]
    },
    "band_gap": 4.837899999999999,
    "is_direct": true,
    "formula": "Y2Si2O7"
}