{
    "mp_id": "mp-556601",
    "nelements": 4,
    "nsites": 28,
    "elements": [
        "B",
        "Bi",
        "O",
        "Pb"
    ],
    "structure": {
        "@module": "pymatgen.core.structure",
        "@class": "Structure",
        "charge": null,
        "lattice": {
            "matrix": [
                [
                    7.50723399,
                    0.0,
                    0.00127472
                ],
                [
                    0.0,
                    7.31926051,
                    0.0
                ],
                [
                    -7.09064035,
                    0.0,
                    7.68703999
                ]
            ],
            "a": 7.5072340982230195,
            "b": 7.31926051,
            "c": 10.45790439719676,
            "alpha": 90.0,
            "beta": 132.6791745619345,
            "gamma": 90.0,
            "volume": 422.4490267333695
        },
        "sites": [
            {
                "species": [
                    {
                        "element": "Bi",
                        "occu": 1
                    }
                ],
                "abc": [
                    0.18161451,
                    0.99782156,
                    0.34510159
                ],
                "xyz": [
                    -1.083568636353962,
                    7.3033159401345955,
                    2.6530412305907713
                ],
                "label": "Bi",
                "properties": {}
            },
            {
                "species": [
                    {
                        "element": "Bi",
                        "occu": 1
                    }
                ],
                "abc": [
                    0.18161451,
                    0.50217844,
                    0.84510159
                ],
                "xyz": [
                    -4.628888811353962,
                    3.6755748248654045,
                    6.496561225590771
                ],
                "label": "Bi",
                "properties": {}
            },
            {
                "species": [
                    {
                        "element": "Bi",
                        "occu": 1
                    }
                ],
                "abc": [
                    0.81838549,
                    0.00217844,
                    0.65489841
                ],
                "xyz": [
                    1.5001622763539615,
                    0.0159445698654044,
                    5.035273479409229
                ],
                "label": "Bi",
                "properties": {}
            },
            {
                "species": [
                    {
                        "element": "Bi",
                        "occu": 1
                    }
                ],
                "abc": [
                    0.81838549,
                    0.49782156,
                    0.15489841
                ],
                "xyz": [
                    5.045482451353962,
                    3.643685685134596,
                    1.1917534844092283
                ],
                "label": "Bi",
                "properties": {}
            },
            {
                "species": [
                    {
                        "element": "B",
                        "occu": 1
                    }
                ],
                "abc": [
                    0.00257384,
                    0.75911552,
                    0.01291262
                ],
                "xyz": [
                    -0.0722363252633954,
                    5.556164248064116,
                    0.09926310724099859
                ],
                "label": "B",
                "properties": {}
            },
            {
                "species": [
                    {
                        "element": "B",
                        "occu": 1
                    }
                ],
                "abc": [
                    0.99742616,
                    0.24088448,
                    0.98708738
                ],
                "xyz": [
                    0.4888299652633954,
                    1.763096261935885,
                    7.5890516027590005
                ],
                "label": "B",
                "properties": {}
            },
            {
                "species": [
                    {
                        "element": "B",
                        "occu": 1
                    }
                ],
                "abc": [
                    0.00257384,
                    0.74088448,
                    0.51291262
                ],
                "xyz": [
                    -3.6175565002633956,
                    5.422726516935885,
                    3.9427831022409987
                ],
                "label": "B",
                "properties": {}
            },
            {
                "species": [
                    {
                        "element": "B",
                        "occu": 1
                    }
                ],
                "abc": [
                    0.99742616,
                    0.25911552,
                    0.48708738
                ],
                "xyz": [
                    4.034150140263394,
                    1.8965339930641152,
                    3.7455316077590015
                ],
                "label": "B",
                "properties": {}
            },
            {
                "species": [
                    {
                        "element": "Pb",
                        "occu": 1
                    }
                ],
                "abc": [
                    0.50649317,
                    0.09813225,
                    0.81745488
                ],
                "xyz": [
                    -1.9939158149055594,
                    0.7182555021824476,
                    6.284453989554313
                ],
                "label": "Pb",
                "properties": {}
            },
            {
                "species": [
                    {
                        "element": "Pb",
                        "occu": 1
                    }
                ],
                "abc": [
                    0.50649317,
                    0.40186775,
                    0.31745488
                ],
                "xyz": [
                    1.5514043600944403,
                    2.941374752817553,
                    2.4409339945543134
                ],
                "label": "Pb",
                "properties": {}
            },
            {
                "species": [
                    {
                        "element": "Pb",
                        "occu": 1
                    }
                ],
                "abc": [
                    0.49350683,
                    0.59813225,
                    0.68254512
                ],
                "xyz": [
                    -1.1348107200944404,
                    4.377885757182448,
                    5.247380715445686
                ],
                "label": "Pb",
                "properties": {}
            },
            {
                "species": [
                    {
                        "element": "Pb",
                        "occu": 1
                    }
                ],
                "abc": [
                    0.49350683,
                    0.90186775,
                    0.18254512
                ],
                "xyz": [
                    2.4105094549055597,
                    6.601005007817553,
                    1.4038607204456863
                ],
                "label": "Pb",
                "properties": {}
            },
            {
                "species": [
                    {
                        "element": "O",
                        "occu": 1
                    }
                ],
                "abc": [
                    0.49506282,
                    0.09971511,
                    0.38993398
                ],
                "xyz": [
                    0.9516708170651587,
                    0.7298408668733061,
                    2.9980691641977706
                ],
                "label": "O",
                "properties": {}
            },
            {
                "species": [
                    {
                        "element": "O",
                        "occu": 1
                    }
                ],
                "abc": [
                    0.21319081,
                    0.21286486,
                    0.53270729
                ],
                "xyz": [
                    -2.1767625100255197,
                    1.5580133637646787,
                    4.095213999783851
                ],
                "label": "O",
                "properties": {}
            },
            {
                "species": [
                    {
                        "element": "O",
                        "occu": 1
                    }
                ],
                "abc": [
                    0.50493718,
                    0.59971511,
                    0.11006602
                ],
                "xyz": [
                    3.010242997934841,
                    4.3894711218733065,
                    0.8467255508022294
                ],
                "label": "O",
                "properties": {}
            },
            {
                "species": [
                    {
                        "element": "O",
                        "occu": 1
                    }
                ],
                "abc": [
                    0.21319081,
                    0.28713514,
                    0.03270729
                ],
                "xyz": [
                    1.3685576649744804,
                    2.1016168912353215,
                    0.2516940047838503
                ],
                "label": "O",
                "properties": {}
            },
            {
                "species": [
                    {
                        "element": "O",
                        "occu": 1
                    }
                ],
                "abc": [
                    0.79034666,
                    0.28718273,
                    0.31220634
                ],
                "xyz": [
                    3.719574437905153,
                    2.1019652148429926,
                    2.400950091405972
                ],
                "label": "O",
                "properties": {}
            },
            {
                "species": [
                    {
                        "element": "O",
                        "occu": 1
                    }
                ],
                "abc": [
                    0.02188893,
                    0.72394846,
                    0.39172477
                ],
                "xyz": [
                    -2.613254140955739,
                    5.298767374553315,
                    3.011231874320402
                ],
                "label": "O",
                "properties": {}
            },
            {
                "species": [
                    {
                        "element": "O",
                        "occu": 1
                    }
                ],
                "abc": [
                    0.97811107,
                    0.22394846,
                    0.10827523
                ],
                "xyz": [
                    6.575167955955738,
                    1.6391371195533146,
                    0.8335628406795981
                ],
                "label": "O",
                "properties": {}
            },
            {
                "species": [
                    {
                        "element": "O",
                        "occu": 1
                    }
                ],
                "abc": [
                    0.50493718,
                    0.90028489,
                    0.61006602
                ],
                "xyz": [
                    -0.5350771770651588,
                    6.5894196431266945,
                    4.690245545802229
                ],
                "label": "O",
                "properties": {}
            },
            {
                "species": [
                    {
                        "element": "O",
                        "occu": 1
                    }
                ],
                "abc": [
                    0.78680919,
                    0.71286486,
                    0.96729271
                ],
                "xyz": [
                    -0.9519640249744805,
                    5.217643618764679,
                    7.436620705216149
                ],
                "label": "O",
                "properties": {}
            },
            {
                "species": [
                    {
                        "element": "O",
                        "occu": 1
                    }
                ],
                "abc": [
                    0.78680919,
                    0.78713514,
                    0.46729271
                ],
                "xyz": [
                    2.593356150025519,
                    5.761247146235322,
                    3.5931007102161496
                ],
                "label": "O",
                "properties": {}
            },
            {
                "species": [
                    {
                        "element": "O",
                        "occu": 1
                    }
                ],
                "abc": [
                    0.02188893,
                    0.77605154,
                    0.89172477
                ],
                "xyz": [
                    -6.15857431595574,
                    5.680123390446686,
                    6.854751869320403
                ],
                "label": "O",
                "properties": {}
            },
            {
                "species": [
                    {
                        "element": "O",
                        "occu": 1
                    }
                ],
                "abc": [
                    0.20965334,
                    0.78718273,
                    0.18779366
                ],
                "xyz": [
                    0.24233937709484543,
                    5.761595469842993,
                    1.4438446235940283
                ],
                "label": "O",
                "properties": {}
            },
            {
                "species": [
                    {
                        "element": "O",
                        "occu": 1
                    }
                ],
                "abc": [
                    0.20965334,
                    0.71281727,
                    0.68779366
                ],
                "xyz": [
                    -3.302980797905155,
                    5.217295295157007,
                    5.287364618594028
                ],
                "label": "O",
                "properties": {}
            },
            {
                "species": [
                    {
                        "element": "O",
                        "occu": 1
                    }
                ],
                "abc": [
                    0.97811107,
                    0.27605154,
                    0.60827523
                ],
                "xyz": [
                    3.0298477809557385,
                    2.0204931354466855,
                    4.677082835679598
                ],
                "label": "O",
                "properties": {}
            },
            {
                "species": [
                    {
                        "element": "O",
                        "occu": 1
                    }
                ],
                "abc": [
                    0.79034666,
                    0.21281727,
                    0.81220634
                ],
                "xyz": [
                    0.1742542629051531,
                    1.5576650401570078,
                    6.244470086405972
                ],
                "label": "O",
                "properties": {}
            },
            {
                "species": [
                    {
                        "element": "O",
                        "occu": 1
                    }
                ],
                "abc": [
                    0.49506282,
                    0.40028489,
                    0.88993398
                ],
                "xyz": [
                    -2.5936493579348414,
                    2.929789388126694,
                    6.84158915919777
                ],
                "label": "O",
                "properties": {}
            }
        ]
    },
    "spacegroup": {
        "source": "spglib",
        "symbol": "P2_1/c",
        "number": 14,
        "point_group": "2/m",
        "crystal_system": "monoclinic",
        "hall": "-P 2ybc"
    },
    "dielectric": {
        "epsilon_ionic": [
            [
                9.48691672,
                -0.0,
                -1.84692753
            ],
            [
                -0.0,
                14.62457842,
                4e-08
            ],
            [
                -1.84692753,
                4e-08,
                17.59985329
            ]
        ],
        "epsilon_ionic_avg": 13.903782810000001,
        "epsilon_ionic_eig": [
            9.086247330630634,
            18.000522679369364,
            14.62457842
        ],
        "epsilon_electronic": [
            [
                4.99877079,
                0.0,
                -0.15798523
            ],
            [
                0.0,
                4.46204007,
                0.0
            ],
            [
                -0.15799104,
                0.0,
                5.08893686
            ]
        ],
        "epsilon_electronic_avg": 4.849915906666666,
        "epsilon_electronic_eig": [
            4.8795591785955885,
            5.208148471404411,
            4.46204007
        ]
    },
    "phonon": {
        "lowest_freq": -0.04877137486112683,
        "frequency": [
            -0.04877137486112683,
            -0.021556246815612582,
            -0.013554872903669728,
            1.0854094905501679,
            1.4287056182287465,
            1.5181035121925173,
            1.6470562051527327,
            1.8256928976701976,
            1.839741373153724,
            1.9626911041145338,
            2.0382340806338184,
            2.0654786403394123,
            2.0858369482451393,
            2.118564482902789,
            2.1995671578079232,
            2.3742653868473775,
            2.6242143485722145,
            2.6791060073823343,
            2.6816791683886714,
            3.0422337366520646,
            3.0468488668812315,
            3.263880158050388,
            3.3065646194149565,
            3.355819284858369,
            3.699944381058992,
            4.03319912187557,
            4.20074015008301,
            4.4994040082290345,
            4.835773445144133,
            4.837872980652003,
            5.017841621211142,
            5.689849613349592,
            5.865804781946344,
            5.896257309761334,
            6.043302103799998,
            6.087665831235362,
            6.2510423978719345,
            6.253574445180813,
            6.473592154499168,
            6.86419204672087,
            7.244582817183008,
            7.2643797169117645,
            7.522793053453245,
            8.209109282173815,
            8.594024455017747,
            8.723205182683186,
            9.111449844772261,
            9.152316240622053,
            9.288391118665759,
            9.52919988748459,
            9.589640841336301,
            10.65669021688372,
            11.988781238138165,
            12.80664576174734,
            13.053715569762407,
            13.23219024665924,
            14.845348512885144,
            15.055073788072502,
            15.335301950813095,
            15.607658596202347,
            16.342733061568246,
            16.509460477164613,
            16.77328801782423,
            16.931550496315843,
            17.524323143571618,
            17.678512347567757,
            17.71838433926861,
            18.10420942008381,
            20.607222150752687,
            20.62484356656251,
            21.035405757501085,
            21.09935444395454,
            26.594318700115068,
            26.636342236842086,
            26.71197544503024,
            26.774415963673068,
            35.133412339030095,
            35.607232606935334,
            35.79346413476532,
            35.98978302336307,
            36.70337012584502,
            36.99833023725111,
            37.045110091013015,
            38.15195208693623
        ]
    },
    "born_effective_charge": {
        "avg_abs_trace": 2.689173809523809,
        "tensors": [
            [
                [
                    4.1977,
                    -0.06829,
                    -0.56885
                ],
                [
                    0.02901,
                    3.97588,
                    -0.1752
                ],
                [
                    -0.58491,
                    -0.11261,
                    4.671
                ]
            ],
            [
                [
                    4.1977,
                    0.06829,
                    -0.56885
                ],
                [
                    -0.02861,
                    3.9759,
                    0.17542
                ],
                [
                    -0.58491,
                    0.11261,
                    4.671
                ]
            ],
            [
                [
                    4.19759,
                    -0.0684,
                    -0.5689
                ],
                [
                    0.02861,
                    3.9759,
                    -0.17542
                ],
                [
                    -0.58487,
                    -0.11253,
                    4.67106
                ]
            ],
            [
                [
                    4.19759,
                    0.0684,
                    -0.5689
                ],
                [
                    -0.02901,
                    3.97588,
                    0.1752
                ],
                [
                    -0.58487,
                    0.11253,
                    4.67106
                ]
            ],
            [
                [
                    3.09219,
                    0.74073,
                    0.15762
                ],
                [
                    1.0299,
                    0.34121,
                    0.84665
                ],
                [
                    0.0905,
                    0.36027,
                    2.85913
                ]
            ],
            [
                [
                    3.09205,
                    0.7408,
                    0.15772
                ],
                [
                    1.03014,
                    0.3413,
                    0.84636
                ],
                [
                    0.09061,
                    0.36022,
                    2.85901
                ]
            ],
            [
                [
                    3.09219,
                    -0.74073,
                    0.15762
                ],
                [
                    -1.03014,
                    0.3413,
                    -0.84636
                ],
                [
                    0.0905,
                    -0.36027,
                    2.85913
                ]
            ],
            [
                [
                    3.09205,
                    -0.7408,
                    0.15772
                ],
                [
                    -1.0299,
                    0.34121,
                    -0.84665
                ],
                [
                    0.09061,
                    -0.36022,
                    2.85901
                ]
            ],
            [
                [
                    2.73649,
                    -0.43248,
                    0.00483
                ],
                [
                    -0.48685,
                    3.33715,
                    0.50234
                ],
                [
                    0.04773,
                    0.49527,
                    3.02572
                ]
            ],
            [
                [
                    2.73649,
                    0.43248,
                    0.00483
                ],
                [
                    0.48677,
                    3.33693,
                    -0.50236
                ],
                [
                    0.04773,
                    -0.49527,
                    3.02572
                ]
            ],
            [
                [
                    2.73657,
                    0.43256,
                    0.00475
                ],
                [
                    0.48685,
                    3.33715,
                    -0.50234
                ],
                [
                    0.04766,
                    -0.49537,
                    3.02578
                ]
            ],
            [
                [
                    2.73657,
                    -0.43256,
                    0.00475
                ],
                [
                    -0.48677,
                    3.33693,
                    0.50236
                ],
                [
                    0.04766,
                    0.49537,
                    3.02578
                ]
            ],
            [
                [
                    -2.60843,
                    -0.63724,
                    -0.06455
                ],
                [
                    -0.40108,
                    -2.40464,
                    0.36874
                ],
                [
                    -0.13472,
                    0.57988,
                    -2.63083
                ]
            ],
            [
                [
                    -2.49273,
                    1.04988,
                    -0.13412
                ],
                [
                    0.91768,
                    -1.70213,
                    -0.08626
                ],
                [
                    -0.05122,
                    -0.09696,
                    -2.51737
                ]
            ],
            [
                [
                    -2.60842,
                    0.63729,
                    -0.06453
                ],
                [
                    0.40108,
                    -2.40464,
                    -0.36874
                ],
                [
                    -0.13473,
                    -0.57992,
                    -2.6308
                ]
            ],
            [
                [
                    -2.49273,
                    -1.04988,
                    -0.13412
                ],
                [
                    -0.91793,
                    -1.70212,
                    0.08597
                ],
                [
                    -0.05122,
                    0.09696,
                    -2.51737
                ]
            ],
            [
                [
                    -2.50625,
                    -0.01662,
                    0.10394
                ],
                [
                    -0.03498,
                    -1.62319,
                    0.85296
                ],
                [
                    0.09574,
                    0.90321,
                    -2.65762
                ]
            ],
            [
                [
                    -2.41888,
                    -0.33002,
                    0.50111
                ],
                [
                    -0.10053,
                    -1.92384,
                    -0.19646
                ],
                [
                    0.53681,
                    -0.46509,
                    -2.75003
                ]
            ],
            [
                [
                    -2.4189,
                    0.33006,
                    0.50106
                ],
                [
                    0.10053,
                    -1.92384,
                    0.19646
                ],
                [
                    0.53682,
                    0.46517,
                    -2.74993
                ]
            ],
            [
                [
                    -2.60842,
                    -0.63729,
                    -0.06453
                ],
                [
                    -0.40111,
                    -2.40522,
                    0.36879
                ],
                [
                    -0.13473,
                    0.57992,
                    -2.6308
                ]
            ],
            [
                [
                    -2.49266,
                    -1.04991,
                    -0.13417
                ],
                [
                    -0.91768,
                    -1.70213,
                    0.08626
                ],
                [
                    -0.05117,
                    0.09704,
                    -2.51734
                ]
            ],
            [
                [
                    -2.49266,
                    1.04991,
                    -0.13417
                ],
                [
                    0.91793,
                    -1.70212,
                    -0.08597
                ],
                [
                    -0.05117,
                    -0.09704,
                    -2.51734
                ]
            ],
            [
                [
                    -2.41888,
                    0.33002,
                    0.50111
                ],
                [
                    0.10039,
                    -1.92407,
                    0.19638
                ],
                [
                    0.53681,
                    0.46509,
                    -2.75003
                ]
            ],
            [
                [
                    -2.50632,
                    0.01673,
                    0.10409
                ],
                [
                    0.03498,
                    -1.62319,
                    -0.85296
                ],
                [
                    0.09574,
                    -0.90332,
                    -2.65776
                ]
            ],
            [
                [
                    -2.50632,
                    -0.01673,
                    0.10409
                ],
                [
                    -0.03518,
                    -1.62316,
                    0.85243
                ],
                [
                    0.09574,
                    0.90332,
                    -2.65776
                ]
            ],
            [
                [
                    -2.4189,
                    -0.33006,
                    0.50106
                ],
                [
                    -0.10039,
                    -1.92407,
                    -0.19638
                ],
                [
                    0.53682,
                    -0.46517,
                    -2.74993
                ]
            ],
            [
                [
                    -2.50625,
                    0.01662,
                    0.10394
                ],
                [
                    0.03518,
                    -1.62316,
                    -0.85243
                ],
                [
                    0.09574,
                    -0.90321,
                    -2.65762
                ]
            ],
            [
                [
                    -2.60843,
                    0.63724,
                    -0.06455
                ],
                [
                    0.40111,
                    -2.40522,
                    -0.36879
                ],
                [
                    -0.13472,
                    -0.57988,
                    -2.63083
                ]
            ]
        ]
    },
    "band_gap": 2.6737999999999995,
    "is_direct": false,
    "formula": "BiBPbO4"
}