{
    "mp_id": "mp-557807",
    "nelements": 4,
    "nsites": 24,
    "elements": [
        "Au",
        "Cs",
        "K",
        "O"
    ],
    "structure": {
        "@module": "pymatgen.core.structure",
        "@class": "Structure",
        "charge": null,
        "lattice": {
            "matrix": [
                [
                    12.44169273,
                    0.0,
                    0.0
                ],
                [
                    0.0,
                    7.32096345,
                    0.0
                ],
                [
                    0.0,
                    0.0,
                    6.26497313
                ]
            ],
            "a": 12.44169273,
            "b": 7.32096345,
            "c": 6.26497313,
            "alpha": 90.0,
            "beta": 90.0,
            "gamma": 90.0,
            "volume": 570.6461910351408
        },
        "sites": [
            {
                "species": [
                    {
                        "element": "Cs",
                        "occu": 1
                    }
                ],
                "abc": [
                    0.90514512,
                    0.75,
                    0.19091022
                ],
                "xyz": [
                    11.261537459098978,
                    5.4907225875,
                    1.1960473985423885
                ],
                "label": "Cs",
                "properties": {}
            },
            {
                "species": [
                    {
                        "element": "Cs",
                        "occu": 1
                    }
                ],
                "abc": [
                    0.09485488,
                    0.25,
                    0.80908978
                ],
                "xyz": [
                    1.1801552709010223,
                    1.8302408625,
                    5.068925731457611
                ],
                "label": "Cs",
                "properties": {}
            },
            {
                "species": [
                    {
                        "element": "Cs",
                        "occu": 1
                    }
                ],
                "abc": [
                    0.59485488,
                    0.25,
                    0.69091022
                ],
                "xyz": [
                    7.401001635901022,
                    1.8302408625,
                    4.328533963542388
                ],
                "label": "Cs",
                "properties": {}
            },
            {
                "species": [
                    {
                        "element": "Cs",
                        "occu": 1
                    }
                ],
                "abc": [
                    0.40514512,
                    0.75,
                    0.30908978
                ],
                "xyz": [
                    5.040691094098978,
                    5.4907225875,
                    1.936439166457611
                ],
                "label": "Cs",
                "properties": {}
            },
            {
                "species": [
                    {
                        "element": "K",
                        "occu": 1
                    }
                ],
                "abc": [
                    0.63984513,
                    0.99926739,
                    0.14946422
                ],
                "xyz": [
                    7.9607565022469045,
                    7.315600038966895,
                    0.9363893221964086
                ],
                "label": "K",
                "properties": {}
            },
            {
                "species": [
                    {
                        "element": "K",
                        "occu": 1
                    }
                ],
                "abc": [
                    0.86015487,
                    0.49926739,
                    0.64946422
                ],
                "xyz": [
                    10.701782592753094,
                    3.6551183139668955,
                    4.068875887196408
                ],
                "label": "K",
                "properties": {}
            },
            {
                "species": [
                    {
                        "element": "K",
                        "occu": 1
                    }
                ],
                "abc": [
                    0.13984513,
                    0.99926739,
                    0.35053578
                ],
                "xyz": [
                    1.739910137246905,
                    7.315600038966895,
                    2.1960972428035914
                ],
                "label": "K",
                "properties": {}
            },
            {
                "species": [
                    {
                        "element": "K",
                        "occu": 1
                    }
                ],
                "abc": [
                    0.86015487,
                    0.00073261,
                    0.64946422
                ],
                "xyz": [
                    10.701782592753094,
                    0.005363411033104499,
                    4.068875887196408
                ],
                "label": "K",
                "properties": {}
            },
            {
                "species": [
                    {
                        "element": "K",
                        "occu": 1
                    }
                ],
                "abc": [
                    0.63984513,
                    0.50073261,
                    0.14946422
                ],
                "xyz": [
                    7.9607565022469045,
                    3.6658451360331044,
                    0.9363893221964086
                ],
                "label": "K",
                "properties": {}
            },
            {
                "species": [
                    {
                        "element": "K",
                        "occu": 1
                    }
                ],
                "abc": [
                    0.13984513,
                    0.50073261,
                    0.35053578
                ],
                "xyz": [
                    1.739910137246905,
                    3.6658451360331044,
                    2.1960972428035914
                ],
                "label": "K",
                "properties": {}
            },
            {
                "species": [
                    {
                        "element": "K",
                        "occu": 1
                    }
                ],
                "abc": [
                    0.36015487,
                    0.00073261,
                    0.85053578
                ],
                "xyz": [
                    4.480936227753095,
                    0.005363411033104499,
                    5.328583807803591
                ],
                "label": "K",
                "properties": {}
            },
            {
                "species": [
                    {
                        "element": "K",
                        "occu": 1
                    }
                ],
                "abc": [
                    0.36015487,
                    0.49926739,
                    0.85053578
                ],
                "xyz": [
                    4.480936227753095,
                    3.6551183139668955,
                    5.328583807803591
                ],
                "label": "K",
                "properties": {}
            },
            {
                "species": [
                    {
                        "element": "Au",
                        "occu": 1
                    }
                ],
                "abc": [
                    0.62158594,
                    0.75,
                    0.68108054
                ],
                "xyz": [
                    7.733581270768216,
                    5.4907225875,
                    4.2669512824658895
                ],
                "label": "Au",
                "properties": {}
            },
            {
                "species": [
                    {
                        "element": "Au",
                        "occu": 1
                    }
                ],
                "abc": [
                    0.87841406,
                    0.25,
                    0.18108054
                ],
                "xyz": [
                    10.928957824231784,
                    1.8302408625,
                    1.1344647174658902
                ],
                "label": "Au",
                "properties": {}
            },
            {
                "species": [
                    {
                        "element": "Au",
                        "occu": 1
                    }
                ],
                "abc": [
                    0.37841406,
                    0.25,
                    0.31891946
                ],
                "xyz": [
                    4.708111459231784,
                    1.8302408625,
                    1.9980218475341096
                ],
                "label": "Au",
                "properties": {}
            },
            {
                "species": [
                    {
                        "element": "Au",
                        "occu": 1
                    }
                ],
                "abc": [
                    0.12158594,
                    0.75,
                    0.81891946
                ],
                "xyz": [
                    1.5127349057682162,
                    5.4907225875,
                    5.13050841253411
                ],
                "label": "Au",
                "properties": {}
            },
            {
                "species": [
                    {
                        "element": "O",
                        "occu": 1
                    }
                ],
                "abc": [
                    0.0189997,
                    0.75,
                    0.57464191
                ],
                "xyz": [
                    0.23638842936218102,
                    5.4907225875,
                    3.600116125521878
                ],
                "label": "O",
                "properties": {}
            },
            {
                "species": [
                    {
                        "element": "O",
                        "occu": 1
                    }
                ],
                "abc": [
                    0.4810003,
                    0.25,
                    0.07464191
                ],
                "xyz": [
                    5.984457935637819,
                    1.8302408625,
                    0.4676295605218783
                ],
                "label": "O",
                "properties": {}
            },
            {
                "species": [
                    {
                        "element": "O",
                        "occu": 1
                    }
                ],
                "abc": [
                    0.27493777,
                    0.25,
                    0.56184441
                ],
                "xyz": [
                    3.4206912542114125,
                    1.8302408625,
                    3.519940131890703
                ],
                "label": "O",
                "properties": {}
            },
            {
                "species": [
                    {
                        "element": "O",
                        "occu": 1
                    }
                ],
                "abc": [
                    0.9810003,
                    0.25,
                    0.42535809
                ],
                "xyz": [
                    12.205304300637819,
                    1.8302408625,
                    2.6648570044781215
                ],
                "label": "O",
                "properties": {}
            },
            {
                "species": [
                    {
                        "element": "O",
                        "occu": 1
                    }
                ],
                "abc": [
                    0.5189997,
                    0.75,
                    0.92535809
                ],
                "xyz": [
                    6.45723479436218,
                    5.4907225875,
                    5.797343569478121
                ],
                "label": "O",
                "properties": {}
            },
            {
                "species": [
                    {
                        "element": "O",
                        "occu": 1
                    }
                ],
                "abc": [
                    0.72506223,
                    0.75,
                    0.43815559
                ],
                "xyz": [
                    9.021001475788587,
                    5.4907225875,
                    2.7450329981092962
                ],
                "label": "O",
                "properties": {}
            },
            {
                "species": [
                    {
                        "element": "O",
                        "occu": 1
                    }
                ],
                "abc": [
                    0.77493777,
                    0.25,
                    0.93815559
                ],
                "xyz": [
                    9.641537619211412,
                    1.8302408625,
                    5.8775195631092965
                ],
                "label": "O",
                "properties": {}
            },
            {
                "species": [
                    {
                        "element": "O",
                        "occu": 1
                    }
                ],
                "abc": [
                    0.22506223,
                    0.75,
                    0.06184441
                ],
                "xyz": [
                    2.800155110788588,
                    5.4907225875,
                    0.38745356689070326
                ],
                "label": "O",
                "properties": {}
            }
        ]
    },
    "spacegroup": {
        "source": "spglib",
        "symbol": "Pnma",
        "number": 62,
        "point_group": "mmm",
        "crystal_system": "orthorhombic",
        "hall": "-P 2ac 2n"
    },
    "dielectric": {
        "epsilon_ionic": [
            [
                5.56737435,
                -1e-08,
                -2e-08
            ],
            [
                -1e-08,
                4.69808644,
                1.3e-07
            ],
            [
                -2e-08,
                1.3e-07,
                4.69748957
            ]
        ],
        "epsilon_ionic_avg": 4.987650119999999,
        "epsilon_ionic_eig": [
            5.56737435,
            4.697489569971685,
            4.698086440028312
        ],
        "epsilon_electronic": [
            [
                3.73850756,
                0.0,
                0.0
            ],
            [
                0.0,
                3.31826478,
                0.0
            ],
            [
                0.0,
                0.0,
                3.80106438
            ]
        ],
        "epsilon_electronic_avg": 3.6192789066666666,
        "epsilon_electronic_eig": [
            3.73850756,
            3.31826478,
            3.80106438
        ]
    },
    "phonon": {
        "lowest_freq": -0.06950145511510582,
        "frequency": [
            -0.06950145511510582,
            -0.03409064622350201,
            -0.013887934994132474,
            1.0182839336401,
            1.1088829890290621,
            1.1153706331070732,
            1.2638438265344896,
            1.3928035855807739,
            1.4473946230418901,
            1.455137090822383,
            1.5958036597017489,
            1.597822056708367,
            1.7168257228551977,
            1.7237847336870291,
            1.7522437218286095,
            1.8115160450394565,
            2.052941224500255,
            2.097098674139072,
            2.102149705259252,
            2.2466268779531893,
            2.2752984110089147,
            2.429036396106594,
            2.534080062373107,
            2.6119020227230947,
            2.7221744724692627,
            2.8465657105599482,
            2.975976150361408,
            3.120276265038479,
            3.398109500633958,
            3.4114243084632827,
            3.4301467858057695,
            3.4308910426184545,
            3.4751274716759917,
            3.5212958974863144,
            3.5808908823718757,
            3.6508165951110927,
            3.667763255913848,
            3.8494366421292083,
            3.852156693930287,
            3.9211631447211506,
            3.9681248964805205,
            4.06752629140972,
            4.3386874902958805,
            4.489313143652664,
            4.661366347511109,
            4.938458479342627,
            4.963367710494805,
            5.054100356100827,
            5.385859227794583,
            5.43300262494753,
            5.521318355222351,
            5.78608674515153,
            5.950924224385594,
            6.188819496492007,
            6.191352812707785,
            7.218561128552054,
            7.313004538125205,
            7.315971392534198,
            7.3408882553790615,
            7.44365219161648,
            7.95109109592556,
            7.994841036071369,
            8.015866928877655,
            8.46625478802106,
            15.604669204934622,
            15.626651890760796,
            16.54028219888727,
            16.60127803061748,
            17.18207285378927,
            17.306604350896418,
            17.35214790299105,
            17.447166156065133
        ]
    },
    "born_effective_charge": {
        "avg_abs_trace": 1.2648747222222223,
        "tensors": [
            [
                [
                    1.55431,
                    -0.0,
                    -0.07205
                ],
                [
                    0.00017,
                    1.06908,
                    4e-05
                ],
                [
                    -0.18491,
                    0.0,
                    1.55286
                ]
            ],
            [
                [
                    1.55429,
                    -0.0,
                    -0.07219
                ],
                [
                    -0.00017,
                    1.06908,
                    -4e-05
                ],
                [
                    -0.18526,
                    0.0,
                    1.55303
                ]
            ],
            [
                [
                    1.55429,
                    -0.0,
                    0.07219
                ],
                [
                    -0.00017,
                    1.06908,
                    4e-05
                ],
                [
                    0.18491,
                    0.0,
                    1.55286
                ]
            ],
            [
                [
                    1.55431,
                    -0.0,
                    0.07205
                ],
                [
                    0.00017,
                    1.06908,
                    -4e-05
                ],
                [
                    0.18526,
                    0.0,
                    1.55303
                ]
            ],
            [
                [
                    1.17321,
                    0.02138,
                    0.04183
                ],
                [
                    0.04574,
                    1.20396,
                    -0.06583
                ],
                [
                    0.17066,
                    0.03884,
                    1.10527
                ]
            ],
            [
                [
                    1.17325,
                    -0.02137,
                    -0.04183
                ],
                [
                    -0.04574,
                    1.20396,
                    -0.06583
                ],
                [
                    -0.17066,
                    0.03884,
                    1.10527
                ]
            ],
            [
                [
                    1.17321,
                    0.02138,
                    -0.04183
                ],
                [
                    0.04574,
                    1.20396,
                    0.06583
                ],
                [
                    -0.1707,
                    -0.03863,
                    1.10531
                ]
            ],
            [
                [
                    1.17325,
                    0.02137,
                    -0.04183
                ],
                [
                    0.04569,
                    1.20397,
                    0.06585
                ],
                [
                    -0.17066,
                    -0.03884,
                    1.10527
                ]
            ],
            [
                [
                    1.17321,
                    -0.02138,
                    0.04183
                ],
                [
                    -0.04569,
                    1.20397,
                    0.06585
                ],
                [
                    0.17066,
                    -0.03884,
                    1.10527
                ]
            ],
            [
                [
                    1.17321,
                    -0.02138,
                    -0.04183
                ],
                [
                    -0.04569,
                    1.20397,
                    -0.06585
                ],
                [
                    -0.1707,
                    0.03863,
                    1.10531
                ]
            ],
            [
                [
                    1.17325,
                    0.02137,
                    0.04183
                ],
                [
                    0.04569,
                    1.20397,
                    -0.06585
                ],
                [
                    0.1707,
                    0.03863,
                    1.10531
                ]
            ],
            [
                [
                    1.17325,
                    -0.02137,
                    0.04183
                ],
                [
                    -0.04574,
                    1.20396,
                    0.06583
                ],
                [
                    0.1707,
                    -0.03863,
                    1.10531
                ]
            ],
            [
                [
                    0.43315,
                    -0.0,
                    -1.72258
                ],
                [
                    0.00016,
                    -1.07416,
                    -5e-05
                ],
                [
                    -1.67548,
                    0.0,
                    0.88354
                ]
            ],
            [
                [
                    0.43311,
                    -0.0,
                    1.72265
                ],
                [
                    -0.00016,
                    -1.07416,
                    -5e-05
                ],
                [
                    1.67548,
                    0.0,
                    0.88354
                ]
            ],
            [
                [
                    0.43311,
                    -0.0,
                    -1.72265
                ],
                [
                    -0.00016,
                    -1.07416,
                    5e-05
                ],
                [
                    -1.67567,
                    0.0,
                    0.88368
                ]
            ],
            [
                [
                    0.43315,
                    -0.0,
                    1.72258
                ],
                [
                    0.00016,
                    -1.07416,
                    5e-05
                ],
                [
                    1.67567,
                    0.0,
                    0.88368
                ]
            ],
            [
                [
                    -2.04412,
                    -0.0,
                    -1.12954
                ],
                [
                    4e-05,
                    -1.20919,
                    5e-05
                ],
                [
                    -0.86199,
                    0.0,
                    -2.39922
                ]
            ],
            [
                [
                    -2.04403,
                    -0.0,
                    1.12948
                ],
                [
                    -4e-05,
                    -1.20919,
                    5e-05
                ],
                [
                    0.86199,
                    0.0,
                    -2.39922
                ]
            ],
            [
                [
                    -2.28978,
                    -0.0,
                    1.0512
                ],
                [
                    -2e-05,
                    -1.19366,
                    2e-05
                ],
                [
                    0.98307,
                    0.0,
                    -2.2476
                ]
            ],
            [
                [
                    -2.04403,
                    -0.0,
                    -1.12948
                ],
                [
                    -4e-05,
                    -1.20919,
                    -5e-05
                ],
                [
                    -0.86146,
                    0.0,
                    -2.39951
                ]
            ],
            [
                [
                    -2.04412,
                    -0.0,
                    1.12954
                ],
                [
                    4e-05,
                    -1.20919,
                    -5e-05
                ],
                [
                    0.86146,
                    0.0,
                    -2.39951
                ]
            ],
            [
                [
                    -2.28984,
                    -0.0,
                    1.05116
                ],
                [
                    2e-05,
                    -1.19366,
                    -2e-05
                ],
                [
                    0.98351,
                    0.0,
                    -2.24794
                ]
            ],
            [
                [
                    -2.28978,
                    -0.0,
                    -1.0512
                ],
                [
                    -2e-05,
                    -1.19366,
                    -2e-05
                ],
                [
                    -0.98351,
                    0.0,
                    -2.24794
                ]
            ],
            [
                [
                    -2.28984,
                    -0.0,
                    -1.05116
                ],
                [
                    2e-05,
                    -1.19366,
                    2e-05
                ],
                [
                    -0.98307,
                    0.0,
                    -2.2476
                ]
            ]
        ]
    },
    "band_gap": 2.3444,
    "is_direct": false,
    "formula": "CsK2AuO2"
}