{
    "mp_id": "mp-556533",
    "nelements": 4,
    "nsites": 34,
    "elements": [
        "Bi",
        "O",
        "Sr",
        "V"
    ],
    "structure": {
        "@module": "pymatgen.core.structure",
        "@class": "Structure",
        "charge": null,
        "lattice": {
            "matrix": [
                [
                    6.96832795,
                    0.00023052,
                    0.00034847
                ],
                [
                    -0.29554546,
                    6.99610265,
                    -9.198e-05
                ],
                [
                    -1.06449753,
                    -1.61362754,
                    9.99701395
                ]
            ],
            "a": 6.968327962526018,
            "b": 7.002342423555417,
            "c": 10.18220195958208,
            "alpha": 98.85500545790045,
            "beta": 95.99842173274581,
            "gamma": 92.41708645975756,
            "volume": 487.3682112551327
        },
        "sites": [
            {
                "species": [
                    {
                        "element": "Sr",
                        "occu": 1
                    }
                ],
                "abc": [
                    0.64635204,
                    0.25521191,
                    0.97685161
                ],
                "xyz": [
                    3.3887101385115663,
                    0.20936305654548293,
                    9.765800932153855
                ],
                "label": "Sr",
                "properties": {}
            },
            {
                "species": [
                    {
                        "element": "Sr",
                        "occu": 1
                    }
                ],
                "abc": [
                    0.35364796,
                    0.74478809,
                    0.02314839
                ],
                "xyz": [
                    2.219574821488434,
                    5.173342573454517,
                    0.23146950784614348
                ],
                "label": "Sr",
                "properties": {}
            },
            {
                "species": [
                    {
                        "element": "Sr",
                        "occu": 1
                    }
                ],
                "abc": [
                    0.33909043,
                    0.38737466,
                    0.63660821
                ],
                "xyz": [
                    1.5707386317417535,
                    1.6829425126486692,
                    6.364263688175445
                ],
                "label": "Sr",
                "properties": {}
            },
            {
                "species": [
                    {
                        "element": "Sr",
                        "occu": 1
                    }
                ],
                "abc": [
                    0.66090957,
                    0.61262534,
                    0.36339179
                ],
                "xyz": [
                    4.037546328258246,
                    3.6997631173513312,
                    3.633006751824555
                ],
                "label": "Sr",
                "properties": {}
            },
            {
                "species": [
                    {
                        "element": "V",
                        "occu": 1
                    }
                ],
                "abc": [
                    0.64032693,
                    0.11059956,
                    0.33562111
                ],
                "xyz": [
                    4.072053003009837,
                    0.23234601686736822,
                    3.3554218803622526
                ],
                "label": "V",
                "properties": {}
            },
            {
                "species": [
                    {
                        "element": "V",
                        "occu": 1
                    }
                ],
                "abc": [
                    0.35967307,
                    0.88940044,
                    0.66437889
                ],
                "xyz": [
                    1.536231956990162,
                    5.150359613132632,
                    6.641848559637748
                ],
                "label": "V",
                "properties": {}
            },
            {
                "species": [
                    {
                        "element": "V",
                        "occu": 1
                    }
                ],
                "abc": [
                    0.15675341,
                    0.23692528,
                    0.96094374
                ],
                "xyz": [
                    -0.00063526040138151,
                    0.10698443080146558,
                    9.606600805418703
                ],
                "label": "V",
                "properties": {}
            },
            {
                "species": [
                    {
                        "element": "V",
                        "occu": 1
                    }
                ],
                "abc": [
                    0.84324659,
                    0.76307472,
                    0.03905626
                ],
                "xyz": [
                    5.608920220401382,
                    5.275721199198535,
                    0.3906696345812987
                ],
                "label": "V",
                "properties": {}
            },
            {
                "species": [
                    {
                        "element": "V",
                        "occu": 1
                    }
                ],
                "abc": [
                    0.13400365,
                    0.42364368,
                    0.26525148
                ],
                "xyz": [
                    0.5262158681264804,
                    2.5358684696713913,
                    2.651730475324375
                ],
                "label": "V",
                "properties": {}
            },
            {
                "species": [
                    {
                        "element": "V",
                        "occu": 1
                    }
                ],
                "abc": [
                    0.86599635,
                    0.57635632,
                    0.73474852
                ],
                "xyz": [
                    5.082069091873519,
                    2.84683716032861,
                    7.345539964675625
                ],
                "label": "V",
                "properties": {}
            },
            {
                "species": [
                    {
                        "element": "Bi",
                        "occu": 1
                    }
                ],
                "abc": [
                    0.8391954,
                    0.08098547,
                    0.63664512
                ],
                "xyz": [
                    5.146146715620411,
                    -0.46053198623650116,
                    6.364835131216931
                ],
                "label": "Bi",
                "properties": {}
            },
            {
                "species": [
                    {
                        "element": "Bi",
                        "occu": 1
                    }
                ],
                "abc": [
                    0.1608046,
                    0.91901453,
                    0.36335488
                ],
                "xyz": [
                    0.4621382443795897,
                    5.843237616236502,
                    3.6324353087830685
                ],
                "label": "Bi",
                "properties": {}
            },
            {
                "species": [
                    {
                        "element": "O",
                        "occu": 1
                    }
                ],
                "abc": [
                    0.98892072,
                    0.39760214,
                    0.65080747
                ],
                "xyz": [
                    6.08083144182629,
                    1.7317324944743218,
                    6.506439394112667
                ],
                "label": "O",
                "properties": {}
            },
            {
                "species": [
                    {
                        "element": "O",
                        "occu": 1
                    }
                ],
                "abc": [
                    0.01107928,
                    0.60239786,
                    0.34919253
                ],
                "xyz": [
                    -0.47254648182629044,
                    3.6509731355256783,
                    3.490831045887332
                ],
                "label": "O",
                "properties": {}
            },
            {
                "species": [
                    {
                        "element": "O",
                        "occu": 1
                    }
                ],
                "abc": [
                    0.02314775,
                    0.33951782,
                    0.09605786
                ],
                "xyz": [
                    -0.04129519169257048,
                    2.2203052479140886,
                    0.9602686038745057
                ],
                "label": "O",
                "properties": {}
            },
            {
                "species": [
                    {
                        "element": "O",
                        "occu": 1
                    }
                ],
                "abc": [
                    0.97685225,
                    0.66048218,
                    0.90394214
                ],
                "xyz": [
                    5.64958015169257,
                    3.1624003820859117,
                    9.037001836125492
                ],
                "label": "O",
                "properties": {}
            },
            {
                "species": [
                    {
                        "element": "O",
                        "occu": 1
                    }
                ],
                "abc": [
                    0.41287657,
                    0.74913357,
                    0.52025023
                ],
                "xyz": [
                    2.1018512322671077,
                    4.401620431768543,
                    5.201023776593288
                ],
                "label": "O",
                "properties": {}
            },
            {
                "species": [
                    {
                        "element": "O",
                        "occu": 1
                    }
                ],
                "abc": [
                    0.58712343,
                    0.25086643,
                    0.47974977
                ],
                "xyz": [
                    3.506433727732893,
                    0.981085198231457,
                    4.796246663406712
                ],
                "label": "O",
                "properties": {}
            },
            {
                "species": [
                    {
                        "element": "O",
                        "occu": 1
                    }
                ],
                "abc": [
                    0.6992896,
                    0.26508623,
                    0.23277902
                ],
                "xyz": [
                    4.546741541213484,
                    1.4791130390138907,
                    2.3273144090228057
                ],
                "label": "O",
                "properties": {}
            },
            {
                "species": [
                    {
                        "element": "O",
                        "occu": 1
                    }
                ],
                "abc": [
                    0.3007104,
                    0.73491377,
                    0.76722098
                ],
                "xyz": [
                    1.0615434187865165,
                    3.90359259098611,
                    7.669956030977194
                ],
                "label": "O",
                "properties": {}
            },
            {
                "species": [
                    {
                        "element": "O",
                        "occu": 1
                    }
                ],
                "abc": [
                    0.96548833,
                    0.12656068,
                    0.85008224
                ],
                "xyz": [
                    5.785524436172444,
                    -0.48606204062525593,
                    8.498608814594256
                ],
                "label": "O",
                "properties": {}
            },
            {
                "species": [
                    {
                        "element": "O",
                        "occu": 1
                    }
                ],
                "abc": [
                    0.03451167,
                    0.87343932,
                    0.14991776
                ],
                "xyz": [
                    -0.17723947617244346,
                    5.868767670625255,
                    1.4986616254057434
                ],
                "label": "O",
                "properties": {}
            },
            {
                "species": [
                    {
                        "element": "O",
                        "occu": 1
                    }
                ],
                "abc": [
                    0.68335564,
                    0.91573949,
                    0.989355
                ],
                "xyz": [
                    3.438037603396773,
                    4.810314525004082,
                    9.890749635723829
                ],
                "label": "O",
                "properties": {}
            },
            {
                "species": [
                    {
                        "element": "O",
                        "occu": 1
                    }
                ],
                "abc": [
                    0.31664436,
                    0.08426051,
                    0.010645
                ],
                "xyz": [
                    2.1702473566032277,
                    0.5723911049959187,
                    0.10652080427616939
                ],
                "label": "O",
                "properties": {}
            },
            {
                "species": [
                    {
                        "element": "O",
                        "occu": 1
                    }
                ],
                "abc": [
                    0.54415055,
                    0.06160028,
                    0.73413718
                ],
                "xyz": [
                    2.9921265886929787,
                    -0.753536652052409,
                    7.339363583822064
                ],
                "label": "O",
                "properties": {}
            },
            {
                "species": [
                    {
                        "element": "O",
                        "occu": 1
                    }
                ],
                "abc": [
                    0.45584945,
                    0.93839972,
                    0.26586282
                ],
                "xyz": [
                    2.6161583713070216,
                    6.136242282052409,
                    2.657906856177935
                ],
                "label": "O",
                "properties": {}
            },
            {
                "species": [
                    {
                        "element": "O",
                        "occu": 1
                    }
                ],
                "abc": [
                    0.16807133,
                    0.02909257,
                    0.60607275
                ],
                "xyz": [
                    0.5174150240741339,
                    -0.7744023307682328,
                    6.058973628346639
                ],
                "label": "O",
                "properties": {}
            },
            {
                "species": [
                    {
                        "element": "O",
                        "occu": 1
                    }
                ],
                "abc": [
                    0.83192867,
                    0.97090743,
                    0.39392725
                ],
                "xyz": [
                    5.090869935925866,
                    6.157107960768233,
                    3.9382968116533608
                ],
                "label": "O",
                "properties": {}
            },
            {
                "species": [
                    {
                        "element": "O",
                        "occu": 1
                    }
                ],
                "abc": [
                    0.30156716,
                    0.39719607,
                    0.90002972
                ],
                "xyz": [
                    1.025949960745188,
                    1.32658125214782,
                    8.99767821926832
                ],
                "label": "O",
                "properties": {}
            },
            {
                "species": [
                    {
                        "element": "O",
                        "occu": 1
                    }
                ],
                "abc": [
                    0.69843284,
                    0.60280393,
                    0.09997028
                ],
                "xyz": [
                    4.582334999254813,
                    4.05612437785218,
                    0.9995922207316793
                ],
                "label": "O",
                "properties": {}
            },
            {
                "species": [
                    {
                        "element": "O",
                        "occu": 1
                    }
                ],
                "abc": [
                    0.66110335,
                    0.46224052,
                    0.76443134
                ],
                "xyz": [
                    3.6564365912450034,
                    2.0005270617905166,
                    7.642218627598537
                ],
                "label": "O",
                "properties": {}
            },
            {
                "species": [
                    {
                        "element": "O",
                        "occu": 1
                    }
                ],
                "abc": [
                    0.33889665,
                    0.53775948,
                    0.23556866
                ],
                "xyz": [
                    1.9518483687549972,
                    3.382178568209483,
                    2.355051812401462
                ],
                "label": "O",
                "properties": {}
            },
            {
                "species": [
                    {
                        "element": "O",
                        "occu": 1
                    }
                ],
                "abc": [
                    0.81822924,
                    0.74673786,
                    0.63247007
                ],
                "xyz": [
                    4.807731870952216,
                    4.203872216228006,
                    6.3230285561423765
                ],
                "label": "O",
                "properties": {}
            },
            {
                "species": [
                    {
                        "element": "O",
                        "occu": 1
                    }
                ],
                "abc": [
                    0.18177076,
                    0.25326214,
                    0.36752993
                ],
                "xyz": [
                    0.8005530890477847,
                    1.1788334137719945,
                    3.6742418838576234
                ],
                "label": "O",
                "properties": {}
            }
        ]
    },
    "spacegroup": {
        "source": "spglib",
        "symbol": "P-1",
        "number": 2,
        "point_group": "-1",
        "crystal_system": "triclinic",
        "hall": "-P 1"
    },
    "dielectric": {
        "epsilon_ionic": [
            [
                12.29934381,
                -1.51734848,
                1.042959
            ],
            [
                -1.51734848,
                17.42696167,
                -2.58071283
            ],
            [
                1.042959,
                -2.58071283,
                9.53889897
            ]
        ],
        "epsilon_ionic_avg": 13.088401483333337,
        "epsilon_ionic_eig": [
            18.679819743436667,
            11.912742437529289,
            8.672642269034053
        ],
        "epsilon_electronic": [
            [
                4.36690122,
                0.04700194,
                0.18225529
            ],
            [
                0.0470068,
                4.58856108,
                -0.04256079
            ],
            [
                0.18225616,
                -0.0425626,
                4.46934679
            ]
        ],
        "epsilon_electronic_avg": 4.474936363333334,
        "epsilon_electronic_eig": [
            4.218035557084548,
            4.610187182740375,
            4.5965863501750786
        ]
    },
    "phonon": {
        "lowest_freq": -0.13021097521012054,
        "frequency": [
            -0.13021097521012054,
            -0.09565483943627663,
            -0.04498643837685902,
            1.291836893565062,
            1.4355996883577764,
            1.4906523241726681,
            1.7937019867134987,
            2.073035070517307,
            2.234585891758541,
            2.4188629487528557,
            2.428821792641426,
            2.4674470228368897,
            2.677469733655067,
            2.7668115739304993,
            2.8974524229455985,
            2.9201521260656693,
            2.9415761456769953,
            3.0779492877768138,
            3.2737917237661383,
            3.4724398596428316,
            3.539498198158246,
            3.5502489057630506,
            3.6878517123454793,
            3.7737245410659246,
            3.839025195713379,
            3.8976188945622585,
            4.026627036333755,
            4.070262589745696,
            4.214767366277444,
            4.402797680312836,
            4.454665138213246,
            4.484903824156564,
            4.722231420562644,
            4.855120717356356,
            4.857861257382393,
            4.97997957967748,
            5.19761802477959,
            5.265341138059929,
            5.331471512197869,
            5.413042680736388,
            5.582354464359428,
            5.657207897979635,
            5.8860267910446735,
            5.939255270635396,
            6.18465199406,
            6.41059943156329,
            6.488761838512118,
            6.582253018933567,
            7.053278961432284,
            7.085138683837118,
            7.204318190542277,
            7.328506787326708,
            7.957152581090769,
            8.11798071900835,
            8.200354765241714,
            8.229957662841898,
            8.96273686238936,
            9.080199652370014,
            9.264891942837883,
            9.419804562226439,
            9.536645947773069,
            9.761483930939782,
            9.906978082322132,
            9.964886439112657,
            10.045260502388848,
            10.28618492408518,
            10.330734901427897,
            10.441746979524167,
            10.74816402580027,
            10.880160614121287,
            11.262631818166104,
            11.336398662432808,
            11.530763905224502,
            11.629442008066297,
            12.281944069473942,
            12.349400934521734,
            12.587124829796544,
            12.592936375141843,
            17.25897062785288,
            17.35512712874438,
            20.297657238145753,
            20.62586718554837,
            21.59341382602578,
            21.915077069079338,
            23.080305077732795,
            23.233592646743308,
            23.350045199097927,
            23.599322479284936,
            24.19193663018682,
            24.373635432083955,
            24.48203913811248,
            24.616337269988364,
            24.782508800925243,
            24.855973226910383,
            25.222969149960218,
            25.562659663121398,
            26.17033787388782,
            26.34341038158837,
            26.552528811112772,
            27.027989252034082,
            27.21124494140235,
            27.749493204536854
        ]
    },
    "born_effective_charge": {
        "avg_abs_trace": 2.60101137254902,
        "tensors": [
            [
                [
                    2.9822,
                    0.08758,
                    0.06442
                ],
                [
                    0.01724,
                    2.90619,
                    -0.05251
                ],
                [
                    0.25001,
                    -0.08325,
                    2.77862
                ]
            ],
            [
                [
                    2.98234,
                    0.08753,
                    0.06435
                ],
                [
                    0.01721,
                    2.90611,
                    -0.05254
                ],
                [
                    0.25014,
                    -0.08305,
                    2.77855
                ]
            ],
            [
                [
                    3.06326,
                    -0.00993,
                    -0.09137
                ],
                [
                    -0.19945,
                    2.90321,
                    0.10557
                ],
                [
                    -0.27773,
                    0.16281,
                    2.46719
                ]
            ],
            [
                [
                    3.0634,
                    -0.00977,
                    -0.0914
                ],
                [
                    -0.19974,
                    2.90287,
                    0.10547
                ],
                [
                    -0.27771,
                    0.16326,
                    2.46727
                ]
            ],
            [
                [
                    3.47477,
                    0.47228,
                    0.85623
                ],
                [
                    0.13861,
                    3.46651,
                    -0.13235
                ],
                [
                    0.26783,
                    -0.29189,
                    3.23008
                ]
            ],
            [
                [
                    3.47477,
                    0.47209,
                    0.85618
                ],
                [
                    0.13832,
                    3.46611,
                    -0.13249
                ],
                [
                    0.26784,
                    -0.29168,
                    3.22997
                ]
            ],
            [
                [
                    3.84477,
                    0.21759,
                    0.27354
                ],
                [
                    0.07825,
                    3.29686,
                    -0.10865
                ],
                [
                    -0.17371,
                    0.51502,
                    4.02767
                ]
            ],
            [
                [
                    3.84496,
                    0.21772,
                    0.27336
                ],
                [
                    0.07829,
                    3.2965,
                    -0.10873
                ],
                [
                    -0.17364,
                    0.51516,
                    4.02752
                ]
            ],
            [
                [
                    2.9252,
                    -0.06348,
                    -0.58096
                ],
                [
                    -0.43427,
                    4.46969,
                    -0.13624
                ],
                [
                    0.08037,
                    -0.10938,
                    4.45252
                ]
            ],
            [
                [
                    2.92516,
                    -0.06355,
                    -0.58088
                ],
                [
                    -0.4344,
                    4.46936,
                    -0.13626
                ],
                [
                    0.08044,
                    -0.10933,
                    4.4525
                ]
            ],
            [
                [
                    5.22268,
                    -0.10052,
                    0.51102
                ],
                [
                    0.61709,
                    5.55562,
                    0.15137
                ],
                [
                    0.64315,
                    -0.28199,
                    5.25923
                ]
            ],
            [
                [
                    5.22289,
                    -0.10042,
                    0.51106
                ],
                [
                    0.61703,
                    5.55569,
                    0.15134
                ],
                [
                    0.64317,
                    -0.28208,
                    5.25931
                ]
            ],
            [
                [
                    -1.99515,
                    0.68128,
                    0.56494
                ],
                [
                    0.82218,
                    -3.49047,
                    -1.33436
                ],
                [
                    0.72888,
                    -0.72577,
                    -1.18853
                ]
            ],
            [
                [
                    -1.99516,
                    0.68103,
                    0.56487
                ],
                [
                    0.82202,
                    -3.49053,
                    -1.33413
                ],
                [
                    0.72905,
                    -0.72564,
                    -1.18871
                ]
            ],
            [
                [
                    -1.16744,
                    0.14781,
                    0.34447
                ],
                [
                    0.06971,
                    -0.807,
                    -0.78966
                ],
                [
                    0.56498,
                    -0.97066,
                    -4.39217
                ]
            ],
            [
                [
                    -1.1671,
                    0.14785,
                    0.34448
                ],
                [
                    0.06957,
                    -0.80697,
                    -0.78985
                ],
                [
                    0.56505,
                    -0.97064,
                    -4.39215
                ]
            ],
            [
                [
                    -1.212,
                    0.44022,
                    0.13361
                ],
                [
                    0.57149,
                    -1.37106,
                    -0.45427
                ],
                [
                    0.39167,
                    -0.63588,
                    -2.57098
                ]
            ],
            [
                [
                    -1.212,
                    0.44005,
                    0.1334
                ],
                [
                    0.57138,
                    -1.37105,
                    -0.45395
                ],
                [
                    0.39193,
                    -0.63629,
                    -2.57183
                ]
            ],
            [
                [
                    -0.9689,
                    -0.51264,
                    0.44306
                ],
                [
                    -0.43967,
                    -2.26849,
                    0.97175
                ],
                [
                    0.50078,
                    1.2013,
                    -1.94457
                ]
            ],
            [
                [
                    -0.96896,
                    -0.51289,
                    0.44322
                ],
                [
                    -0.43967,
                    -2.26746,
                    0.97155
                ],
                [
                    0.50091,
                    1.20087,
                    -1.9444
                ]
            ],
            [
                [
                    -2.29026,
                    -0.48863,
                    -1.72026
                ],
                [
                    -0.56065,
                    -0.98122,
                    -0.58658
                ],
                [
                    -1.80527,
                    -0.70476,
                    -3.65335
                ]
            ],
            [
                [
                    -2.28998,
                    -0.48865,
                    -1.72024
                ],
                [
                    -0.56086,
                    -0.98136,
                    -0.58681
                ],
                [
                    -1.80508,
                    -0.70456,
                    -3.6532
                ]
            ],
            [
                [
                    -1.90359,
                    0.99112,
                    -0.27412
                ],
                [
                    1.04074,
                    -2.06407,
                    0.42933
                ],
                [
                    -0.42723,
                    0.43553,
                    -0.94328
                ]
            ],
            [
                [
                    -1.90362,
                    0.9912,
                    -0.27414
                ],
                [
                    1.04059,
                    -2.06436,
                    0.42959
                ],
                [
                    -0.42746,
                    0.43584,
                    -0.94356
                ]
            ],
            [
                [
                    -3.59831,
                    -1.66903,
                    -0.44951
                ],
                [
                    -1.03523,
                    -1.72396,
                    -0.47201
                ],
                [
                    -0.57286,
                    -0.63376,
                    -1.40682
                ]
            ],
            [
                [
                    -3.59831,
                    -1.66865,
                    -0.4493
                ],
                [
                    -1.03599,
                    -1.72475,
                    -0.47324
                ],
                [
                    -0.5729,
                    -0.6336,
                    -1.40642
                ]
            ],
            [
                [
                    -3.46333,
                    1.42624,
                    -0.53146
                ],
                [
                    1.0046,
                    -1.71858,
                    0.16298
                ],
                [
                    -0.38957,
                    0.37438,
                    -2.13238
                ]
            ],
            [
                [
                    -3.4631,
                    1.42609,
                    -0.5312
                ],
                [
                    1.00466,
                    -1.71848,
                    0.16301
                ],
                [
                    -0.38956,
                    0.37445,
                    -2.13251
                ]
            ],
            [
                [
                    -1.83687,
                    -0.88331,
                    0.49719
                ],
                [
                    -0.95644,
                    -2.26673,
                    0.45184
                ],
                [
                    0.48192,
                    0.40936,
                    -1.24171
                ]
            ],
            [
                [
                    -1.83704,
                    -0.88336,
                    0.49737
                ],
                [
                    -0.95617,
                    -2.26608,
                    0.45155
                ],
                [
                    0.48193,
                    0.409,
                    -1.24166
                ]
            ],
            [
                [
                    -2.27134,
                    -0.84859,
                    0.1273
                ],
                [
                    -1.11502,
                    -1.48184,
                    0.19679
                ],
                [
                    -0.0412,
                    0.04735,
                    -1.08989
                ]
            ],
            [
                [
                    -2.27141,
                    -0.84868,
                    0.12738
                ],
                [
                    -1.11498,
                    -1.48199,
                    0.19689
                ],
                [
                    -0.0415,
                    0.04732,
                    -1.08997
                ]
            ],
            [
                [
                    -0.80616,
                    0.11224,
                    -0.16828
                ],
                [
                    0.38188,
                    -4.4242,
                    1.59796
                ],
                [
                    -0.22228,
                    1.29134,
                    -1.65125
                ]
            ],
            [
                [
                    -0.80641,
                    0.1122,
                    -0.16832
                ],
                [
                    0.38168,
                    -4.42409,
                    1.59762
                ],
                [
                    -0.22232,
                    1.2912,
                    -1.65109
                ]
            ]
        ]
    },
    "band_gap": 2.8442,
    "is_direct": false,
    "formula": "Sr2V3BiO11"
}