{
    "mp_id": "mp-557359",
    "nelements": 4,
    "nsites": 13,
    "elements": [
        "Al",
        "Cs",
        "O",
        "Sb"
    ],
    "structure": {
        "@module": "pymatgen.core.structure",
        "@class": "Structure",
        "charge": null,
        "lattice": {
            "matrix": [
                [
                    5.72354821,
                    -0.0,
                    0.0
                ],
                [
                    -2.86177461,
                    4.9567385,
                    0.0
                ],
                [
                    0.0,
                    0.0,
                    8.86700008
                ]
            ],
            "a": 5.72354821,
            "b": 5.723548765916379,
            "c": 8.86700008,
            "alpha": 90.0,
            "beta": 90.0,
            "gamma": 120.00000262441469,
            "volume": 251.55796066633627
        },
        "sites": [
            {
                "species": [
                    {
                        "element": "Cs",
                        "occu": 1
                    }
                ],
                "abc": [
                    0.333333,
                    0.666667,
                    0.59633379
                ],
                "xyz": [
                    -3.198440940321845e-06,
                    3.3044939855795,
                    5.287691763636703
                ],
                "label": "Cs",
                "properties": {}
            },
            {
                "species": [
                    {
                        "element": "Cs",
                        "occu": 1
                    }
                ],
                "abc": [
                    0.666667,
                    0.333333,
                    0.40366621
                ],
                "xyz": [
                    2.86177679844094,
                    1.6522445144205,
                    3.579308316363297
                ],
                "label": "Cs",
                "properties": {}
            },
            {
                "species": [
                    {
                        "element": "Al",
                        "occu": 1
                    }
                ],
                "abc": [
                    0.0,
                    0.0,
                    0.19356146
                ],
                "xyz": [
                    0.0,
                    0.0,
                    1.716309481304917
                ],
                "label": "Al",
                "properties": {}
            },
            {
                "species": [
                    {
                        "element": "Al",
                        "occu": 1
                    }
                ],
                "abc": [
                    0.0,
                    0.0,
                    0.80643854
                ],
                "xyz": [
                    0.0,
                    0.0,
                    7.150690598695084
                ],
                "label": "Al",
                "properties": {}
            },
            {
                "species": [
                    {
                        "element": "Sb",
                        "occu": 1
                    }
                ],
                "abc": [
                    0.333333,
                    0.666667,
                    0.14630373
                ],
                "xyz": [
                    -3.198440940321845e-06,
                    3.3044939855795,
                    1.2972751856142983
                ],
                "label": "Sb",
                "properties": {}
            },
            {
                "species": [
                    {
                        "element": "Sb",
                        "occu": 1
                    }
                ],
                "abc": [
                    0.666667,
                    0.333333,
                    0.85369627
                ],
                "xyz": [
                    2.86177679844094,
                    1.6522445144205,
                    7.569724894385702
                ],
                "label": "Sb",
                "properties": {}
            },
            {
                "species": [
                    {
                        "element": "O",
                        "occu": 1
                    }
                ],
                "abc": [
                    0.33449034,
                    0.16724517,
                    0.73236221
                ],
                "xyz": [
                    1.4358536056181574,
                    0.828990573078045,
                    6.493855774658977
                ],
                "label": "O",
                "properties": {}
            },
            {
                "species": [
                    {
                        "element": "O",
                        "occu": 1
                    }
                ],
                "abc": [
                    0.16724517,
                    0.83275483,
                    0.26763779
                ],
                "xyz": [
                    -1.4259208354642203,
                    4.127747926921955,
                    2.373144305341023
                ],
                "label": "O",
                "properties": {}
            },
            {
                "species": [
                    {
                        "element": "O",
                        "occu": 1
                    }
                ],
                "abc": [
                    0.83275483,
                    0.16724517,
                    0.73236221
                ],
                "xyz": [
                    4.28769443546422,
                    0.828990573078045,
                    6.493855774658977
                ],
                "label": "O",
                "properties": {}
            },
            {
                "species": [
                    {
                        "element": "O",
                        "occu": 1
                    }
                ],
                "abc": [
                    0.66550966,
                    0.83275483,
                    0.26763779
                ],
                "xyz": [
                    1.4259199943818426,
                    4.127747926921955,
                    2.373144305341023
                ],
                "label": "O",
                "properties": {}
            },
            {
                "species": [
                    {
                        "element": "O",
                        "occu": 1
                    }
                ],
                "abc": [
                    0.0,
                    0.0,
                    0.0
                ],
                "xyz": [
                    0.0,
                    0.0,
                    0.0
                ],
                "label": "O",
                "properties": {}
            },
            {
                "species": [
                    {
                        "element": "O",
                        "occu": 1
                    }
                ],
                "abc": [
                    0.16724517,
                    0.33449034,
                    0.26763779
                ],
                "xyz": [
                    -1.689176217789523e-07,
                    1.65798114615609,
                    2.373144305341023
                ],
                "label": "O",
                "properties": {}
            },
            {
                "species": [
                    {
                        "element": "O",
                        "occu": 1
                    }
                ],
                "abc": [
                    0.83275483,
                    0.66550966,
                    0.73236221
                ],
                "xyz": [
                    2.8617737689176215,
                    3.2987573538439103,
                    6.493855774658977
                ],
                "label": "O",
                "properties": {}
            }
        ]
    },
    "spacegroup": {
        "source": "spglib",
        "symbol": "P-3m1",
        "number": 164,
        "point_group": "-3m",
        "crystal_system": "trigonal",
        "hall": "-P 3 2\""
    },
    "dielectric": {
        "epsilon_ionic": [
            [
                4.52434702,
                -1.2e-07,
                -2e-08
            ],
            [
                -1.2e-07,
                4.52548853,
                -0.00010751
            ],
            [
                -2e-08,
                -0.00010751,
                2.25329984
            ]
        ],
        "epsilon_ionic_avg": 3.767711796666666,
        "epsilon_ionic_eig": [
            4.524347019987387,
            4.5254885350995115,
            2.2532998349130984
        ],
        "epsilon_electronic": [
            [
                3.37511254,
                0.0,
                -0.0
            ],
            [
                0.0,
                3.37511258,
                0.0
            ],
            [
                0.0,
                0.0,
                3.0469671
            ]
        ],
        "epsilon_electronic_avg": 3.26573074,
        "epsilon_electronic_eig": [
            3.37511254,
            3.37511258,
            3.0469671
        ]
    },
    "phonon": {
        "lowest_freq": -0.13256607933238057,
        "frequency": [
            -0.13256607933238057,
            -0.13256607850275615,
            -0.06255351920026142,
            1.0366130144789396,
            1.0366130215519782,
            2.1919907590442773,
            2.41701645364852,
            2.4170164688159876,
            2.637315862288914,
            2.7858099550045,
            2.785809972550574,
            2.903133524210311,
            2.9031335410472994,
            3.0901284866687777,
            3.124805239750433,
            3.5823318429878213,
            6.610351355154598,
            6.610351392126933,
            6.664865611859626,
            7.460680125446292,
            7.460680158204717,
            9.93101703039774,
            9.93101705500752,
            10.558637951611797,
            10.558637986332203,
            12.480578928409434,
            15.21587597935194,
            15.215876027538478,
            15.340648375671886,
            15.340648423466503,
            15.639811289803626,
            19.431189451865485,
            21.183356458445843,
            21.183356516132672,
            21.198474012393273,
            21.198474070038966,
            23.69142478196377,
            24.055817148610924,
            29.96250801677289
        ]
    },
    "born_effective_charge": {
        "avg_abs_trace": 1.9987017948717953,
        "tensors": [
            [
                [
                    1.33757,
                    0.0,
                    -1e-05
                ],
                [
                    0.0,
                    1.33762,
                    -3e-05
                ],
                [
                    -0.0,
                    -0.0,
                    1.42885
                ]
            ],
            [
                [
                    1.33757,
                    -0.0,
                    1e-05
                ],
                [
                    -0.0,
                    1.33751,
                    -5e-05
                ],
                [
                    -0.0,
                    -0.0,
                    1.42909
                ]
            ],
            [
                [
                    3.08682,
                    0.00014,
                    -1e-05
                ],
                [
                    -0.0,
                    3.08627,
                    -0.00015
                ],
                [
                    -0.0,
                    -0.0,
                    1.93784
                ]
            ],
            [
                [
                    3.08682,
                    -0.00014,
                    1e-05
                ],
                [
                    0.0,
                    3.08647,
                    -0.00015
                ],
                [
                    -0.0,
                    -0.0,
                    1.93781
                ]
            ],
            [
                [
                    2.62621,
                    -0.00055,
                    -5e-05
                ],
                [
                    -0.0,
                    2.62651,
                    -0.00029
                ],
                [
                    -0.0,
                    -0.0,
                    2.01979
                ]
            ],
            [
                [
                    2.62621,
                    0.00055,
                    5e-05
                ],
                [
                    0.0,
                    2.62666,
                    -0.00019
                ],
                [
                    -0.0,
                    -0.0,
                    2.01908
                ]
            ],
            [
                [
                    -2.45383,
                    -0.67519,
                    -0.3703
                ],
                [
                    -0.67514,
                    -1.67437,
                    -0.2136
                ],
                [
                    -0.14031,
                    -0.08101,
                    -1.44063
                ]
            ],
            [
                [
                    -2.45383,
                    0.67519,
                    0.3703
                ],
                [
                    0.67514,
                    -1.67427,
                    -0.21398
                ],
                [
                    0.13975,
                    -0.08069,
                    -1.44069
                ]
            ],
            [
                [
                    -2.45456,
                    0.67545,
                    0.37086
                ],
                [
                    0.67514,
                    -1.67437,
                    -0.2136
                ],
                [
                    0.14031,
                    -0.08101,
                    -1.44063
                ]
            ],
            [
                [
                    -2.45456,
                    -0.67545,
                    -0.37086
                ],
                [
                    -0.67514,
                    -1.67427,
                    -0.21398
                ],
                [
                    -0.13975,
                    -0.08069,
                    -1.44069
                ]
            ],
            [
                [
                    -1.71478,
                    0.0,
                    0.0
                ],
                [
                    0.0,
                    -1.71509,
                    0.00012
                ],
                [
                    -0.0,
                    -0.0,
                    -2.12849
                ]
            ],
            [
                [
                    -1.28482,
                    -0.00062,
                    0.00033
                ],
                [
                    -0.0,
                    -2.84409,
                    0.4279
                ],
                [
                    -0.0,
                    0.16137,
                    -1.44069
                ]
            ],
            [
                [
                    -1.28482,
                    0.00062,
                    -0.00033
                ],
                [
                    -0.0,
                    -2.84456,
                    0.428
                ],
                [
                    -0.0,
                    0.16202,
                    -1.44063
                ]
            ]
        ]
    },
    "band_gap": 3.5530000000000004,
    "is_direct": false,
    "formula": "Cs2Al2Sb2O7"
}