{
    "mp_id": "mp-555377",
    "nelements": 3,
    "nsites": 20,
    "elements": [
        "Li",
        "O",
        "W"
    ],
    "structure": {
        "@module": "pymatgen.core.structure",
        "@class": "Structure",
        "charge": null,
        "lattice": {
            "matrix": [
                [
                    5.06526231,
                    0.00071281,
                    0.00047129
                ],
                [
                    -0.99310057,
                    4.99398244,
                    -0.00059938
                ],
                [
                    -1.56704114,
                    -2.82002352,
                    7.01091334
                ]
            ],
            "a": 5.065262382080408,
            "b": 5.091768819616525,
            "c": 7.717580997229355,
            "alpha": 108.59577184912364,
            "beta": 101.71333078156418,
            "gamma": 101.23902063089365,
            "volume": 177.34828930466244
        },
        "sites": [
            {
                "species": [
                    {
                        "element": "Li",
                        "occu": 1
                    }
                ],
                "abc": [
                    0.69655115,
                    0.38660621,
                    0.3908402
                ],
                "xyz": [
                    2.5318127669997885,
                    0.8290225759986798,
                    2.740243325549602
                ],
                "label": "Li",
                "properties": {}
            },
            {
                "species": [
                    {
                        "element": "Li",
                        "occu": 1
                    }
                ],
                "abc": [
                    0.77842195,
                    0.59492466,
                    0.09871516
                ],
                "xyz": [
                    3.1974006287969656,
                    2.6932190991325866,
                    0.6920937086423391
                ],
                "label": "Li",
                "properties": {}
            },
            {
                "species": [
                    {
                        "element": "Li",
                        "occu": 1
                    }
                ],
                "abc": [
                    0.57009183,
                    0.19483967,
                    0.69565826
                ],
                "xyz": [
                    1.6040441596014987,
                    -0.9883403973295378,
                    4.877351670692344
                ],
                "label": "Li",
                "properties": {}
            },
            {
                "species": [
                    {
                        "element": "Li",
                        "occu": 1
                    }
                ],
                "abc": [
                    0.5,
                    0.0,
                    0.0
                ],
                "xyz": [
                    2.532631155,
                    0.000356405,
                    0.000235645
                ],
                "label": "Li",
                "properties": {}
            },
            {
                "species": [
                    {
                        "element": "Li",
                        "occu": 1
                    }
                ],
                "abc": [
                    0.22157805,
                    0.40507534,
                    0.90128484
                ],
                "xyz": [
                    -0.6922800287969659,
                    -0.5185473691325866,
                    6.318691541357661
                ],
                "label": "Li",
                "properties": {}
            },
            {
                "species": [
                    {
                        "element": "Li",
                        "occu": 1
                    }
                ],
                "abc": [
                    0.42990817,
                    0.80516033,
                    0.30434174
                ],
                "xyz": [
                    0.9010764403985008,
                    3.163012127329538,
                    2.1334335793076558
                ],
                "label": "Li",
                "properties": {}
            },
            {
                "species": [
                    {
                        "element": "Li",
                        "occu": 1
                    }
                ],
                "abc": [
                    0.30344885,
                    0.61339379,
                    0.6091598
                ],
                "xyz": [
                    -0.026692166999788935,
                    1.3456491540013205,
                    4.270541924450399
                ],
                "label": "Li",
                "properties": {}
            },
            {
                "species": [
                    {
                        "element": "Li",
                        "occu": 1
                    }
                ],
                "abc": [
                    0.0,
                    0.0,
                    0.5
                ],
                "xyz": [
                    -0.78352057,
                    -1.41001176,
                    3.50545667
                ],
                "label": "Li",
                "properties": {}
            },
            {
                "species": [
                    {
                        "element": "W",
                        "occu": 1
                    }
                ],
                "abc": [
                    0.8911679,
                    0.78313415,
                    0.7832976
                ],
                "xyz": [
                    2.5088086409371195,
                    1.702675771495573,
                    5.4915821966027485
                ],
                "label": "W",
                "properties": {}
            },
            {
                "species": [
                    {
                        "element": "W",
                        "occu": 1
                    }
                ],
                "abc": [
                    0.1088321,
                    0.21686585,
                    0.2167024
                ],
                "xyz": [
                    -0.0036880409371194967,
                    0.4719959585044269,
                    1.519203053397252
                ],
                "label": "W",
                "properties": {}
            },
            {
                "species": [
                    {
                        "element": "O",
                        "occu": 1
                    }
                ],
                "abc": [
                    0.05151521,
                    0.5688734,
                    0.33590475
                ],
                "xyz": [
                    -0.8303870085645177,
                    1.893721195260216,
                    2.3546824000091937
                ],
                "label": "O",
                "properties": {}
            },
            {
                "species": [
                    {
                        "element": "O",
                        "occu": 1
                    }
                ],
                "abc": [
                    0.77768833,
                    0.00997442,
                    0.24917002
                ],
                "xyz": [
                    3.5388301124938,
                    -0.6522988945311783,
                    1.747269955411253
                ],
                "label": "O",
                "properties": {}
            },
            {
                "species": [
                    {
                        "element": "O",
                        "occu": 1
                    }
                ],
                "abc": [
                    0.22231167,
                    0.99002558,
                    0.75082998
                ],
                "xyz": [
                    -1.0337095124938003,
                    2.8269706245311776,
                    5.263515294588747
                ],
                "label": "O",
                "properties": {}
            },
            {
                "species": [
                    {
                        "element": "O",
                        "occu": 1
                    }
                ],
                "abc": [
                    0.4272339,
                    0.39020306,
                    0.15468871
                ],
                "xyz": [
                    1.5341373174590354,
                    1.5127459657920663,
                    1.0844766116410198
                ],
                "label": "O",
                "properties": {}
            },
            {
                "species": [
                    {
                        "element": "O",
                        "occu": 1
                    }
                ],
                "abc": [
                    0.94848479,
                    0.4311266,
                    0.66409525
                ],
                "xyz": [
                    3.3355076085645172,
                    0.28095053473978404,
                    4.656102849990806
                ],
                "label": "O",
                "properties": {}
            },
            {
                "species": [
                    {
                        "element": "O",
                        "occu": 1
                    }
                ],
                "abc": [
                    0.13169656,
                    0.8242914,
                    0.04200408
                ],
                "xyz": [
                    -0.21734875886929578,
                    3.998138158131989,
                    0.29405496829885763
                ],
                "label": "O",
                "properties": {}
            },
            {
                "species": [
                    {
                        "element": "O",
                        "occu": 1
                    }
                ],
                "abc": [
                    0.33449104,
                    0.18879891,
                    0.429166
                ],
                "xyz": [
                    0.8342677749190837,
                    -0.2671613441949572,
                    3.008890114466006
                ],
                "label": "O",
                "properties": {}
            },
            {
                "species": [
                    {
                        "element": "O",
                        "occu": 1
                    }
                ],
                "abc": [
                    0.86830344,
                    0.1757086,
                    0.95799592
                ],
                "xyz": [
                    2.7224693588692954,
                    -1.8234664281319881,
                    6.7167302817011425
                ],
                "label": "O",
                "properties": {}
            },
            {
                "species": [
                    {
                        "element": "O",
                        "occu": 1
                    }
                ],
                "abc": [
                    0.5727661,
                    0.60979694,
                    0.84531129
                ],
                "xyz": [
                    0.9709832825409641,
                    0.6619257642079335,
                    5.9263086383589805
                ],
                "label": "O",
                "properties": {}
            },
            {
                "species": [
                    {
                        "element": "O",
                        "occu": 1
                    }
                ],
                "abc": [
                    0.66550896,
                    0.81120109,
                    0.570834
                ],
                "xyz": [
                    1.6708528250809165,
                    2.4418330741949568,
                    4.001895135533994
                ],
                "label": "O",
                "properties": {}
            }
        ]
    },
    "spacegroup": {
        "source": "spglib",
        "symbol": "P-1",
        "number": 2,
        "point_group": "-1",
        "crystal_system": "triclinic",
        "hall": "-P 1"
    },
    "dielectric": {
        "epsilon_ionic": [
            [
                12.63547669,
                -1.51603526,
                -0.02374985
            ],
            [
                -1.51603526,
                12.59834399,
                2.13205098
            ],
            [
                -0.02374985,
                2.13205098,
                16.88836979
            ]
        ],
        "epsilon_ionic_avg": 14.040730156666664,
        "epsilon_ionic_eig": [
            10.69363050772293,
            13.58721754161349,
            17.841342420663576
        ],
        "epsilon_electronic": [
            [
                3.91526759,
                0.1350165,
                -0.03298589
            ],
            [
                0.13501314,
                3.70971761,
                0.10777792
            ],
            [
                -0.03298335,
                0.10777545,
                4.0290587
            ]
        ],
        "epsilon_electronic_avg": 3.8846813000000004,
        "epsilon_electronic_eig": [
            3.61301652592869,
            3.978349575649741,
            4.062677798421571
        ]
    },
    "phonon": {
        "lowest_freq": -0.08841366075807312,
        "frequency": [
            -0.08841366075807312,
            -0.03729631396276916,
            -0.025103832028670076,
            2.4049513035159946,
            3.932724481916682,
            4.206801086640684,
            5.38755106654418,
            5.7330748108189695,
            6.022034882912253,
            6.876855792601695,
            7.181109073551394,
            7.417197010943358,
            7.500734467055827,
            7.6530197653876275,
            8.01264329190371,
            8.116867562728455,
            8.194929146465409,
            8.279310808727406,
            8.463574183764552,
            8.660965442337583,
            8.768700933292603,
            9.517731542934722,
            9.579528165853674,
            9.63507154544694,
            9.974920154627641,
            9.993093839944551,
            10.039732336150534,
            10.312558801529978,
            10.492789934893748,
            10.575435527887945,
            10.867396110945888,
            11.015897870046393,
            11.220472147991655,
            11.524368131933995,
            11.71528995061821,
            12.037470745027527,
            12.105019143063311,
            12.120710228478298,
            12.387607665671093,
            12.67254192557704,
            13.346025337512584,
            13.363214960735126,
            13.54668855913374,
            13.593602902823442,
            13.833230652692343,
            13.852148711554795,
            14.335781628756777,
            14.495403980273352,
            15.005484735746311,
            15.337792532906807,
            16.816678870116935,
            17.692761391657584,
            18.04739150862823,
            18.75419165149492,
            19.9304454592882,
            20.68559307050866,
            20.83252118873212,
            21.561046246759137,
            22.923749031786134,
            23.656569420776155
        ]
    },
    "born_effective_charge": {
        "avg_abs_trace": 2.0569796666666664,
        "tensors": [
            [
                [
                    1.28585,
                    0.008,
                    -0.02129
                ],
                [
                    -0.01825,
                    0.51888,
                    0.2616
                ],
                [
                    -0.00173,
                    0.22463,
                    1.28231
                ]
            ],
            [
                [
                    1.04969,
                    0.14559,
                    -0.01092
                ],
                [
                    -0.03261,
                    1.55829,
                    -0.24042
                ],
                [
                    -0.06874,
                    -0.1087,
                    0.8484
                ]
            ],
            [
                [
                    1.19021,
                    0.04713,
                    0.16522
                ],
                [
                    0.07701,
                    1.53112,
                    -0.09769
                ],
                [
                    0.25876,
                    -0.21683,
                    1.14513
                ]
            ],
            [
                [
                    1.5493,
                    -0.26898,
                    0.09721
                ],
                [
                    -0.03245,
                    0.51581,
                    0.11195
                ],
                [
                    0.03632,
                    0.13083,
                    0.82754
                ]
            ],
            [
                [
                    1.04969,
                    0.14558,
                    -0.01092
                ],
                [
                    -0.03262,
                    1.55829,
                    -0.24042
                ],
                [
                    -0.06873,
                    -0.10871,
                    0.84841
                ]
            ],
            [
                [
                    1.1902,
                    0.04713,
                    0.16522
                ],
                [
                    0.077,
                    1.53112,
                    -0.09768
                ],
                [
                    0.25878,
                    -0.21682,
                    1.14513
                ]
            ],
            [
                [
                    1.28585,
                    0.008,
                    -0.02129
                ],
                [
                    -0.01825,
                    0.51888,
                    0.26159
                ],
                [
                    -0.00173,
                    0.22463,
                    1.28232
                ]
            ],
            [
                [
                    0.75856,
                    -0.09983,
                    -0.37714
                ],
                [
                    -0.09044,
                    1.48655,
                    -0.12406
                ],
                [
                    -0.39576,
                    -0.16968,
                    1.40644
                ]
            ],
            [
                [
                    5.77933,
                    0.47699,
                    -0.10628
                ],
                [
                    0.4944,
                    5.07108,
                    0.40371
                ],
                [
                    -0.12266,
                    0.44089,
                    6.32236
                ]
            ],
            [
                [
                    5.7793,
                    0.47695,
                    -0.1063
                ],
                [
                    0.4944,
                    5.07106,
                    0.40375
                ],
                [
                    -0.12249,
                    0.44094,
                    6.32228
                ]
            ],
            [
                [
                    -1.64038,
                    0.68109,
                    0.48946
                ],
                [
                    0.65127,
                    -2.34335,
                    -0.7031
                ],
                [
                    0.57011,
                    -0.82303,
                    -1.82678
                ]
            ],
            [
                [
                    -2.6982,
                    -0.89889,
                    0.27668
                ],
                [
                    -0.8265,
                    -1.96807,
                    0.09948
                ],
                [
                    0.30911,
                    0.17406,
                    -1.54284
                ]
            ],
            [
                [
                    -2.69827,
                    -0.89885,
                    0.27674
                ],
                [
                    -0.82666,
                    -1.96824,
                    0.09967
                ],
                [
                    0.30915,
                    0.17425,
                    -1.54299
                ]
            ],
            [
                [
                    -2.79849,
                    -1.02388,
                    0.24074
                ],
                [
                    -0.84405,
                    -1.92708,
                    0.19919
                ],
                [
                    0.21968,
                    0.09119,
                    -1.46418
                ]
            ],
            [
                [
                    -1.6404,
                    0.68106,
                    0.48942
                ],
                [
                    0.65114,
                    -2.34327,
                    -0.70316
                ],
                [
                    0.57017,
                    -0.82339,
                    -1.82699
                ]
            ],
            [
                [
                    -1.58981,
                    0.43176,
                    -0.18712
                ],
                [
                    0.36615,
                    -1.93128,
                    -0.36465
                ],
                [
                    -0.12186,
                    -0.44239,
                    -3.04259
                ]
            ],
            [
                [
                    -1.73226,
                    0.31667,
                    -0.70663
                ],
                [
                    0.19422,
                    -1.51076,
                    0.44808
                ],
                [
                    -0.86317,
                    0.67979,
                    -2.83882
                ]
            ],
            [
                [
                    -1.58973,
                    0.43178,
                    -0.18712
                ],
                [
                    0.36621,
                    -1.93146,
                    -0.36479
                ],
                [
                    -0.12181,
                    -0.44242,
                    -3.04246
                ]
            ],
            [
                [
                    -2.79838,
                    -1.02384,
                    0.24081
                ],
                [
                    -0.844,
                    -1.92709,
                    0.19921
                ],
                [
                    0.21962,
                    0.09106,
                    -1.46404
                ]
            ],
            [
                [
                    -1.73208,
                    0.31651,
                    -0.7065
                ],
                [
                    0.19403,
                    -1.51048,
                    0.44773
                ],
                [
                    -0.86299,
                    0.67971,
                    -2.83863
                ]
            ]
        ]
    },
    "band_gap": 3.7569999999999997,
    "is_direct": false,
    "formula": "Li4WO5"
}