{
    "mp_id": "mp-5637",
    "nelements": 3,
    "nsites": 16,
    "elements": [
        "O",
        "Sr",
        "Zn"
    ],
    "structure": {
        "@module": "pymatgen.core.structure",
        "@class": "Structure",
        "charge": null,
        "lattice": {
            "matrix": [
                [
                    5.73793291,
                    0.0,
                    0.0
                ],
                [
                    0.0,
                    3.30394643,
                    0.0
                ],
                [
                    0.0,
                    0.0,
                    11.24535386
                ]
            ],
            "a": 5.73793291,
            "b": 3.30394643,
            "c": 11.24535386,
            "alpha": 90.0,
            "beta": 90.0,
            "gamma": 90.0,
            "volume": 213.18742752817008
        },
        "sites": [
            {
                "species": [
                    {
                        "element": "Sr",
                        "occu": 1
                    }
                ],
                "abc": [
                    0.79294826,
                    0.25,
                    0.87132838
                ],
                "xyz": [
                    4.549883916981236,
                    0.8259866075,
                    9.798395961360546
                ],
                "label": "Sr",
                "properties": {}
            },
            {
                "species": [
                    {
                        "element": "Sr",
                        "occu": 1
                    }
                ],
                "abc": [
                    0.20705174,
                    0.75,
                    0.12867162
                ],
                "xyz": [
                    1.1880489930187634,
                    2.4779598225,
                    1.4469578986394531
                ],
                "label": "Sr",
                "properties": {}
            },
            {
                "species": [
                    {
                        "element": "Sr",
                        "occu": 1
                    }
                ],
                "abc": [
                    0.29294826,
                    0.25,
                    0.62867162
                ],
                "xyz": [
                    1.6809174619812366,
                    0.8259866075,
                    7.069634828639453
                ],
                "label": "Sr",
                "properties": {}
            },
            {
                "species": [
                    {
                        "element": "Sr",
                        "occu": 1
                    }
                ],
                "abc": [
                    0.70705174,
                    0.75,
                    0.37132838
                ],
                "xyz": [
                    4.057015448018763,
                    2.4779598225,
                    4.175719031360547
                ],
                "label": "Sr",
                "properties": {}
            },
            {
                "species": [
                    {
                        "element": "Zn",
                        "occu": 1
                    }
                ],
                "abc": [
                    0.27987116,
                    0.75,
                    0.86523344
                ],
                "xyz": [
                    1.6058819395238755,
                    2.4779598225,
                    9.729856204305078
                ],
                "label": "Zn",
                "properties": {}
            },
            {
                "species": [
                    {
                        "element": "Zn",
                        "occu": 1
                    }
                ],
                "abc": [
                    0.77987116,
                    0.75,
                    0.63476656
                ],
                "xyz": [
                    4.4748483945238755,
                    2.4779598225,
                    7.138174585694921
                ],
                "label": "Zn",
                "properties": {}
            },
            {
                "species": [
                    {
                        "element": "Zn",
                        "occu": 1
                    }
                ],
                "abc": [
                    0.72012884,
                    0.25,
                    0.13476656
                ],
                "xyz": [
                    4.132050970476124,
                    0.8259866075,
                    1.5154976556949216
                ],
                "label": "Zn",
                "properties": {}
            },
            {
                "species": [
                    {
                        "element": "Zn",
                        "occu": 1
                    }
                ],
                "abc": [
                    0.22012884,
                    0.25,
                    0.36523344
                ],
                "xyz": [
                    1.2630845154761243,
                    0.8259866075,
                    4.107179274305079
                ],
                "label": "Zn",
                "properties": {}
            },
            {
                "species": [
                    {
                        "element": "O",
                        "occu": 1
                    }
                ],
                "abc": [
                    0.73940445,
                    0.25,
                    0.54490769
                ],
                "xyz": [
                    4.2426531274554495,
                    0.8259866075,
                    6.127679795085182
                ],
                "label": "O",
                "properties": {}
            },
            {
                "species": [
                    {
                        "element": "O",
                        "occu": 1
                    }
                ],
                "abc": [
                    0.26059555,
                    0.75,
                    0.45509231
                ],
                "xyz": [
                    1.4952797825445505,
                    2.4779598225,
                    5.117674064914817
                ],
                "label": "O",
                "properties": {}
            },
            {
                "species": [
                    {
                        "element": "O",
                        "occu": 1
                    }
                ],
                "abc": [
                    0.23940445,
                    0.25,
                    0.95509231
                ],
                "xyz": [
                    1.3736866724554493,
                    0.8259866075,
                    10.740350994914817
                ],
                "label": "O",
                "properties": {}
            },
            {
                "species": [
                    {
                        "element": "O",
                        "occu": 1
                    }
                ],
                "abc": [
                    0.76059555,
                    0.75,
                    0.04490769
                ],
                "xyz": [
                    4.36424623754455,
                    2.4779598225,
                    0.5050028650851834
                ],
                "label": "O",
                "properties": {}
            },
            {
                "species": [
                    {
                        "element": "O",
                        "occu": 1
                    }
                ],
                "abc": [
                    0.96362897,
                    0.25,
                    0.25703802
                ],
                "xyz": [
                    5.529238379992402,
                    0.8259866075,
                    2.890483490373757
                ],
                "label": "O",
                "properties": {}
            },
            {
                "species": [
                    {
                        "element": "O",
                        "occu": 1
                    }
                ],
                "abc": [
                    0.53637103,
                    0.75,
                    0.75703802
                ],
                "xyz": [
                    3.077660985007597,
                    2.4779598225,
                    8.513160420373756
                ],
                "label": "O",
                "properties": {}
            },
            {
                "species": [
                    {
                        "element": "O",
                        "occu": 1
                    }
                ],
                "abc": [
                    0.46362897,
                    0.25,
                    0.24296198
                ],
                "xyz": [
                    2.6602719249924025,
                    0.8259866075,
                    2.7321934396262426
                ],
                "label": "O",
                "properties": {}
            },
            {
                "species": [
                    {
                        "element": "O",
                        "occu": 1
                    }
                ],
                "abc": [
                    0.03637103,
                    0.75,
                    0.74296198
                ],
                "xyz": [
                    0.20869453000759727,
                    2.4779598225,
                    8.354870369626243
                ],
                "label": "O",
                "properties": {}
            }
        ]
    },
    "spacegroup": {
        "source": "spglib",
        "symbol": "Pnma",
        "number": 62,
        "point_group": "mmm",
        "crystal_system": "orthorhombic",
        "hall": "-P 2ac 2n"
    },
    "dielectric": {
        "epsilon_ionic": [
            [
                13.30778744,
                -2e-08,
                -1e-08
            ],
            [
                -2e-08,
                8.35906893,
                0.0
            ],
            [
                -1e-08,
                0.0,
                8.06661167
            ]
        ],
        "epsilon_ionic_avg": 9.911156013333333,
        "epsilon_ionic_eig": [
            13.30778744,
            8.359068929999996,
            8.06661167
        ],
        "epsilon_electronic": [
            [
                3.95453705,
                0.0,
                0.0
            ],
            [
                -0.0,
                4.17202333,
                0.0
            ],
            [
                0.0,
                0.0,
                4.10336078
            ]
        ],
        "epsilon_electronic_avg": 4.076640386666667,
        "epsilon_electronic_eig": [
            3.95453705,
            4.17202333,
            4.10336078
        ]
    },
    "phonon": {
        "lowest_freq": -0.11100340223251876,
        "frequency": [
            -0.11100340223251876,
            -0.07571898519953423,
            -0.04957607701709915,
            0.9140255045944449,
            2.492636045444944,
            3.0848200795144094,
            3.1419088230895977,
            3.256221755990193,
            3.4706043182684003,
            3.587084540972995,
            3.6870191499621687,
            3.9001717973639916,
            3.917301655191126,
            3.994433266569227,
            4.079410904144716,
            4.228554452873315,
            4.459151738485476,
            4.935807960400957,
            4.9746076605546525,
            4.978911093470404,
            5.6409274273342875,
            5.9291275306519,
            6.056022426853724,
            6.601877336090753,
            6.620980748486001,
            6.797533712352256,
            7.271964885914286,
            7.363178148123739,
            7.419125087780188,
            7.445055997411704,
            7.823214434502002,
            7.957409119993448,
            8.614204680676048,
            9.264860551576021,
            9.64286809632404,
            11.11712172699548,
            12.283935782101628,
            12.89601000342394,
            12.942142700719424,
            13.196001543357381,
            13.285378388627864,
            13.297125572398699,
            13.97989211384983,
            14.708128568119012,
            15.43024652758847,
            15.459280196853243,
            19.44811622333059,
            19.858988945582244
        ]
    },
    "born_effective_charge": {
        "avg_abs_trace": 2.199314166666667,
        "tensors": [
            [
                [
                    2.35821,
                    0.0,
                    0.07408
                ],
                [
                    0.0001,
                    2.50541,
                    1e-05
                ],
                [
                    0.03051,
                    0.0,
                    2.58318
                ]
            ],
            [
                [
                    2.35837,
                    0.0,
                    0.07382
                ],
                [
                    -0.0001,
                    2.50541,
                    -1e-05
                ],
                [
                    0.0305,
                    0.0,
                    2.58325
                ]
            ],
            [
                [
                    2.35821,
                    0.0,
                    -0.07408
                ],
                [
                    0.0001,
                    2.50541,
                    -1e-05
                ],
                [
                    -0.0305,
                    0.0,
                    2.58325
                ]
            ],
            [
                [
                    2.35837,
                    0.0,
                    -0.07382
                ],
                [
                    -0.0001,
                    2.50541,
                    1e-05
                ],
                [
                    -0.03051,
                    0.0,
                    2.58318
                ]
            ],
            [
                [
                    1.83014,
                    -0.0,
                    -0.02221
                ],
                [
                    -2e-05,
                    2.04091,
                    9e-05
                ],
                [
                    -0.04083,
                    0.0,
                    1.87794
                ]
            ],
            [
                [
                    1.83014,
                    -0.0,
                    0.02221
                ],
                [
                    -2e-05,
                    2.04091,
                    -9e-05
                ],
                [
                    0.04085,
                    0.0,
                    1.87793
                ]
            ],
            [
                [
                    1.83012,
                    -0.0,
                    -0.02213
                ],
                [
                    2e-05,
                    2.04091,
                    -9e-05
                ],
                [
                    -0.04085,
                    0.0,
                    1.87793
                ]
            ],
            [
                [
                    1.83012,
                    -0.0,
                    0.02213
                ],
                [
                    2e-05,
                    2.04091,
                    9e-05
                ],
                [
                    0.04083,
                    0.0,
                    1.87794
                ]
            ],
            [
                [
                    -1.72428,
                    -0.0,
                    -0.01625
                ],
                [
                    3e-05,
                    -2.6276,
                    0.00029
                ],
                [
                    -0.05961,
                    0.0,
                    -2.27474
                ]
            ],
            [
                [
                    -1.7243,
                    -0.0,
                    -0.01622
                ],
                [
                    -3e-05,
                    -2.6276,
                    -0.00029
                ],
                [
                    -0.05964,
                    0.0,
                    -2.27474
                ]
            ],
            [
                [
                    -1.72428,
                    -0.0,
                    0.01625
                ],
                [
                    3e-05,
                    -2.6276,
                    -0.00029
                ],
                [
                    0.05964,
                    0.0,
                    -2.27474
                ]
            ],
            [
                [
                    -1.7243,
                    -0.0,
                    0.01622
                ],
                [
                    -3e-05,
                    -2.6276,
                    0.00029
                ],
                [
                    0.05961,
                    0.0,
                    -2.27474
                ]
            ],
            [
                [
                    -2.46417,
                    -0.0,
                    -0.26264
                ],
                [
                    8e-05,
                    -1.91872,
                    1e-05
                ],
                [
                    -0.08162,
                    0.0,
                    -2.1864
                ]
            ],
            [
                [
                    -2.46408,
                    -0.0,
                    0.2622
                ],
                [
                    -8e-05,
                    -1.91872,
                    1e-05
                ],
                [
                    0.08162,
                    -0.0,
                    -2.1864
                ]
            ],
            [
                [
                    -2.46417,
                    -0.0,
                    0.26264
                ],
                [
                    8e-05,
                    -1.91872,
                    -1e-05
                ],
                [
                    0.08161,
                    0.0,
                    -2.18641
                ]
            ],
            [
                [
                    -2.46408,
                    -0.0,
                    -0.2622
                ],
                [
                    -8e-05,
                    -1.91872,
                    -1e-05
                ],
                [
                    -0.08161,
                    -0.0,
                    -2.18641
                ]
            ]
        ]
    },
    "band_gap": 2.5770000000000004,
    "is_direct": true,
    "formula": "SrZnO2"
}