{
    "mp_id": "mp-5794",
    "nelements": 3,
    "nsites": 14,
    "elements": [
        "Ga",
        "O",
        "Zn"
    ],
    "structure": {
        "@module": "pymatgen.core.structure",
        "@class": "Structure",
        "charge": null,
        "lattice": {
            "matrix": [
                [
                    0.0,
                    4.15193695,
                    4.15193695
                ],
                [
                    4.15193695,
                    0.0,
                    4.15193695
                ],
                [
                    4.15193695,
                    4.15193695,
                    0.0
                ]
            ],
            "a": 5.871725544807982,
            "b": 5.871725544807982,
            "c": 5.871725544807982,
            "alpha": 59.99999999999999,
            "beta": 59.99999999999999,
            "gamma": 59.99999999999999,
            "volume": 143.14699816198902
        },
        "sites": [
            {
                "species": [
                    {
                        "element": "Zn",
                        "occu": 1
                    }
                ],
                "abc": [
                    0.0,
                    0.0,
                    0.0
                ],
                "xyz": [
                    0.0,
                    0.0,
                    0.0
                ],
                "label": "Zn",
                "properties": {}
            },
            {
                "species": [
                    {
                        "element": "Zn",
                        "occu": 1
                    }
                ],
                "abc": [
                    0.25,
                    0.25,
                    0.25
                ],
                "xyz": [
                    2.075968475,
                    2.075968475,
                    2.075968475
                ],
                "label": "Zn",
                "properties": {}
            },
            {
                "species": [
                    {
                        "element": "Ga",
                        "occu": 1
                    }
                ],
                "abc": [
                    0.625,
                    0.625,
                    0.125
                ],
                "xyz": [
                    3.1139527124999997,
                    3.1139527124999997,
                    5.1899211874999995
                ],
                "label": "Ga",
                "properties": {}
            },
            {
                "species": [
                    {
                        "element": "Ga",
                        "occu": 1
                    }
                ],
                "abc": [
                    0.625,
                    0.125,
                    0.625
                ],
                "xyz": [
                    3.1139527124999997,
                    5.1899211874999995,
                    3.1139527124999997
                ],
                "label": "Ga",
                "properties": {}
            },
            {
                "species": [
                    {
                        "element": "Ga",
                        "occu": 1
                    }
                ],
                "abc": [
                    0.125,
                    0.625,
                    0.625
                ],
                "xyz": [
                    5.1899211874999995,
                    3.1139527124999997,
                    3.1139527124999997
                ],
                "label": "Ga",
                "properties": {}
            },
            {
                "species": [
                    {
                        "element": "Ga",
                        "occu": 1
                    }
                ],
                "abc": [
                    0.625,
                    0.625,
                    0.625
                ],
                "xyz": [
                    5.1899211874999995,
                    5.1899211874999995,
                    5.1899211874999995
                ],
                "label": "Ga",
                "properties": {}
            },
            {
                "species": [
                    {
                        "element": "O",
                        "occu": 1
                    }
                ],
                "abc": [
                    0.38512729,
                    0.84461812,
                    0.38512729
                ],
                "xyz": [
                    5.105825406871899,
                    3.198048451608731,
                    5.105825406871899
                ],
                "label": "O",
                "properties": {}
            },
            {
                "species": [
                    {
                        "element": "O",
                        "occu": 1
                    }
                ],
                "abc": [
                    0.86487271,
                    0.86487271,
                    0.40538188
                ],
                "xyz": [
                    5.2740169681281,
                    5.2740169681281,
                    7.181793923391268
                ],
                "label": "O",
                "properties": {}
            },
            {
                "species": [
                    {
                        "element": "O",
                        "occu": 1
                    }
                ],
                "abc": [
                    0.86487271,
                    0.86487271,
                    0.86487271
                ],
                "xyz": [
                    7.181793923391268,
                    7.181793923391268,
                    7.181793923391268
                ],
                "label": "O",
                "properties": {}
            },
            {
                "species": [
                    {
                        "element": "O",
                        "occu": 1
                    }
                ],
                "abc": [
                    0.40538188,
                    0.86487271,
                    0.86487271
                ],
                "xyz": [
                    7.181793923391268,
                    5.2740169681281,
                    5.2740169681281
                ],
                "label": "O",
                "properties": {}
            },
            {
                "species": [
                    {
                        "element": "O",
                        "occu": 1
                    }
                ],
                "abc": [
                    0.38512729,
                    0.38512729,
                    0.38512729
                ],
                "xyz": [
                    3.198048451608731,
                    3.198048451608731,
                    3.198048451608731
                ],
                "label": "O",
                "properties": {}
            },
            {
                "species": [
                    {
                        "element": "O",
                        "occu": 1
                    }
                ],
                "abc": [
                    0.84461812,
                    0.38512729,
                    0.38512729
                ],
                "xyz": [
                    3.198048451608731,
                    5.105825406871899,
                    5.105825406871899
                ],
                "label": "O",
                "properties": {}
            },
            {
                "species": [
                    {
                        "element": "O",
                        "occu": 1
                    }
                ],
                "abc": [
                    0.86487271,
                    0.40538188,
                    0.86487271
                ],
                "xyz": [
                    5.2740169681281,
                    7.181793923391268,
                    5.2740169681281
                ],
                "label": "O",
                "properties": {}
            },
            {
                "species": [
                    {
                        "element": "O",
                        "occu": 1
                    }
                ],
                "abc": [
                    0.38512729,
                    0.38512729,
                    0.84461812
                ],
                "xyz": [
                    5.105825406871899,
                    5.105825406871899,
                    3.198048451608731
                ],
                "label": "O",
                "properties": {}
            }
        ]
    },
    "spacegroup": {
        "source": "spglib",
        "symbol": "Fd-3m",
        "number": 227,
        "point_group": "m-3m",
        "crystal_system": "cubic",
        "hall": "F 4d 2 3 -1d"
    },
    "dielectric": {
        "epsilon_ionic": [
            [
                6.92008419,
                0.0,
                0.0
            ],
            [
                0.0,
                6.92006938,
                0.0
            ],
            [
                0.0,
                0.0,
                6.91982521
            ]
        ],
        "epsilon_ionic_avg": 6.919992926666667,
        "epsilon_ionic_eig": [
            6.92008419,
            6.92006938,
            6.91982521
        ],
        "epsilon_electronic": [
            [
                4.06224831,
                0.0,
                -0.0
            ],
            [
                0.0,
                4.06224831,
                0.0
            ],
            [
                -0.0,
                -0.0,
                4.06224831
            ]
        ],
        "epsilon_electronic_avg": 4.06224831,
        "epsilon_electronic_eig": [
            4.06224831,
            4.06224831,
            4.06224831
        ]
    },
    "phonon": {
        "lowest_freq": -0.08159505878278532,
        "frequency": [
            -0.08159505878278532,
            -0.08159505878278532,
            -0.08159505878278532,
            3.8001703993362095,
            3.8001703993362095,
            3.8001703993362095,
            5.079334834074685,
            5.079334834074685,
            5.079334834074685,
            5.29083214415698,
            5.29083214415698,
            5.29083214415698,
            6.3493200021019005,
            6.3493200021019005,
            9.642283504929816,
            9.642283504929816,
            9.642283504929816,
            9.65480649304738,
            9.65480649304738,
            9.65480649304738,
            10.608708722495246,
            10.608708722495246,
            11.474573212947925,
            11.474573212947925,
            11.474573212947925,
            11.890523928045836,
            12.243395272966433,
            12.243395272966433,
            12.243395272966433,
            13.41488169947075,
            13.41488169947075,
            13.41488169947075,
            15.953398947439618,
            15.953398947439618,
            16.211124735126,
            16.211124735126,
            16.211124735126,
            17.46418837429628,
            17.46418837429628,
            17.46418837429628,
            20.08169703496189,
            20.46632756599389
        ]
    },
    "born_effective_charge": {
        "avg_abs_trace": 2.3678780952380953,
        "tensors": [
            [
                [
                    2.21122,
                    -0.0,
                    -0.0
                ],
                [
                    -0.0,
                    2.21121,
                    -0.0
                ],
                [
                    0.0,
                    -0.0,
                    2.21109
                ]
            ],
            [
                [
                    2.21122,
                    -0.0,
                    -0.0
                ],
                [
                    -0.0,
                    2.21121,
                    -0.0
                ],
                [
                    -0.0,
                    -0.0,
                    2.21109
                ]
            ],
            [
                [
                    3.0382,
                    0.29168,
                    -0.29168
                ],
                [
                    0.29167,
                    3.0382,
                    -0.29167
                ],
                [
                    -0.29161,
                    -0.29161,
                    3.0382
                ]
            ],
            [
                [
                    3.0382,
                    -0.29168,
                    0.29168
                ],
                [
                    -0.29167,
                    3.0382,
                    -0.29167
                ],
                [
                    0.29161,
                    -0.29161,
                    3.0382
                ]
            ],
            [
                [
                    3.0382,
                    -0.29168,
                    -0.29168
                ],
                [
                    -0.29167,
                    3.0382,
                    0.29167
                ],
                [
                    -0.29161,
                    0.29161,
                    3.0382
                ]
            ],
            [
                [
                    3.0382,
                    0.29168,
                    0.29168
                ],
                [
                    0.29167,
                    3.0382,
                    0.29167
                ],
                [
                    0.29161,
                    0.29161,
                    3.0382
                ]
            ],
            [
                [
                    -2.07189,
                    0.11447,
                    -0.11447
                ],
                [
                    0.11449,
                    -2.0719,
                    0.11449
                ],
                [
                    -0.11443,
                    0.11443,
                    -2.07187
                ]
            ],
            [
                [
                    -2.07192,
                    -0.1145,
                    0.1145
                ],
                [
                    -0.11449,
                    -2.0719,
                    0.11449
                ],
                [
                    0.11443,
                    0.11443,
                    -2.07187
                ]
            ],
            [
                [
                    -2.07189,
                    -0.11447,
                    -0.11447
                ],
                [
                    -0.11446,
                    -2.07191,
                    -0.11446
                ],
                [
                    -0.11443,
                    -0.11443,
                    -2.07187
                ]
            ],
            [
                [
                    -2.07189,
                    0.11447,
                    0.11447
                ],
                [
                    0.11449,
                    -2.0719,
                    -0.11449
                ],
                [
                    0.11447,
                    -0.11447,
                    -2.07187
                ]
            ],
            [
                [
                    -2.07192,
                    -0.1145,
                    -0.1145
                ],
                [
                    -0.11449,
                    -2.0719,
                    -0.11449
                ],
                [
                    -0.11447,
                    -0.11447,
                    -2.07187
                ]
            ],
            [
                [
                    -2.07192,
                    0.1145,
                    0.1145
                ],
                [
                    0.11446,
                    -2.07191,
                    -0.11446
                ],
                [
                    0.11443,
                    -0.11443,
                    -2.07187
                ]
            ],
            [
                [
                    -2.07192,
                    0.1145,
                    -0.1145
                ],
                [
                    0.11446,
                    -2.07191,
                    0.11446
                ],
                [
                    -0.11447,
                    0.11447,
                    -2.07187
                ]
            ],
            [
                [
                    -2.07189,
                    -0.11447,
                    0.11447
                ],
                [
                    -0.11446,
                    -2.07191,
                    0.11446
                ],
                [
                    0.11447,
                    0.11447,
                    -2.07187
                ]
            ]
        ]
    },
    "band_gap": 2.7746,
    "is_direct": false,
    "formula": "Zn(GaO2)2"
}