{
    "mp_id": "mp-542724",
    "nelements": 3,
    "nsites": 12,
    "elements": [
        "La",
        "Nb",
        "O"
    ],
    "structure": {
        "@module": "pymatgen.core.structure",
        "@class": "Structure",
        "charge": null,
        "lattice": {
            "matrix": [
                [
                    3.60412926,
                    -5.69359052,
                    0.00023117
                ],
                [
                    3.60412926,
                    5.69359052,
                    0.00023117
                ],
                [
                    -3.27005939,
                    0.0,
                    4.01076598
                ]
            ],
            "a": 6.738450918843409,
            "b": 6.738450918843409,
            "c": 5.174894410560715,
            "alpha": 109.75239651277796,
            "beta": 109.75239651277796,
            "gamma": 115.33113672839968,
            "volume": 164.61394273331155
        },
        "sites": [
            {
                "species": [
                    {
                        "element": "La",
                        "occu": 1
                    }
                ],
                "abc": [
                    0.63306769,
                    0.36693231,
                    0.75
                ],
                "xyz": [
                    1.1515847174999996,
                    -1.5152658766045977,
                    3.0083056550000005
                ],
                "label": "La",
                "properties": {}
            },
            {
                "species": [
                    {
                        "element": "La",
                        "occu": 1
                    }
                ],
                "abc": [
                    0.36693231,
                    0.63306769,
                    0.25
                ],
                "xyz": [
                    2.7866144124999996,
                    1.5152658766045977,
                    1.002922665
                ],
                "label": "La",
                "properties": {}
            },
            {
                "species": [
                    {
                        "element": "Nb",
                        "occu": 1
                    }
                ],
                "abc": [
                    0.09517113,
                    0.90482887,
                    0.75
                ],
                "xyz": [
                    1.1515847175,
                    4.609859632908624,
                    3.0083056550000005
                ],
                "label": "Nb",
                "properties": {}
            },
            {
                "species": [
                    {
                        "element": "Nb",
                        "occu": 1
                    }
                ],
                "abc": [
                    0.90482887,
                    0.09517113,
                    0.25
                ],
                "xyz": [
                    2.7866144125,
                    -4.609859632908624,
                    1.002922665
                ],
                "label": "Nb",
                "properties": {}
            },
            {
                "species": [
                    {
                        "element": "O",
                        "occu": 1
                    }
                ],
                "abc": [
                    0.79808933,
                    0.737403,
                    0.29118355
                ],
                "xyz": [
                    4.581925333167542,
                    -0.3455231131815921,
                    1.1682240360375553
                ],
                "label": "O",
                "properties": {}
            },
            {
                "species": [
                    {
                        "element": "O",
                        "occu": 1
                    }
                ],
                "abc": [
                    0.262597,
                    0.20191067,
                    0.20881645
                ],
                "xyz": [
                    0.9913034918324588,
                    -0.3455231131815917,
                    0.8376212939624449
                ],
                "label": "O",
                "properties": {}
            },
            {
                "species": [
                    {
                        "element": "O",
                        "occu": 1
                    }
                ],
                "abc": [
                    0.20191067,
                    0.262597,
                    0.70881645
                ],
                "xyz": [
                    -0.6437262031675415,
                    0.3455231131815917,
                    2.843004283962445
                ],
                "label": "O",
                "properties": {}
            },
            {
                "species": [
                    {
                        "element": "O",
                        "occu": 1
                    }
                ],
                "abc": [
                    0.737403,
                    0.79808933,
                    0.79118355
                ],
                "xyz": [
                    2.946895638167542,
                    0.3455231131815921,
                    3.1736070260375553
                ],
                "label": "O",
                "properties": {}
            },
            {
                "species": [
                    {
                        "element": "O",
                        "occu": 1
                    }
                ],
                "abc": [
                    0.05605835,
                    0.64352828,
                    0.83921189
                ],
                "xyz": [
                    -0.22287207800635356,
                    3.3448132242330635,
                    3.3660442218647595
                ],
                "label": "O",
                "properties": {}
            },
            {
                "species": [
                    {
                        "element": "O",
                        "occu": 1
                    }
                ],
                "abc": [
                    0.35647172,
                    0.94394165,
                    0.66078811
                ],
                "xyz": [
                    2.5260415130063536,
                    3.344813224233064,
                    2.650567088135241
                ],
                "label": "O",
                "properties": {}
            },
            {
                "species": [
                    {
                        "element": "O",
                        "occu": 1
                    }
                ],
                "abc": [
                    0.94394165,
                    0.35647172,
                    0.16078811
                ],
                "xyz": [
                    4.161071208006354,
                    -3.344813224233064,
                    0.6451840981352408
                ],
                "label": "O",
                "properties": {}
            },
            {
                "species": [
                    {
                        "element": "O",
                        "occu": 1
                    }
                ],
                "abc": [
                    0.64352828,
                    0.05605835,
                    0.33921189
                ],
                "xyz": [
                    1.4121576169936463,
                    -3.3448132242330635,
                    1.3606612318647595
                ],
                "label": "O",
                "properties": {}
            }
        ]
    },
    "spacegroup": {
        "source": "spglib",
        "symbol": "C2/c",
        "number": 15,
        "point_group": "2/m",
        "crystal_system": "monoclinic",
        "hall": "-C 2yc"
    },
    "dielectric": {
        "epsilon_ionic": [
            [
                21.64190515,
                -1e-08,
                -7.83074295
            ],
            [
                -1e-08,
                11.03178751,
                0.0
            ],
            [
                -7.83074295,
                0.0,
                17.593136
            ]
        ],
        "epsilon_ionic_avg": 16.75560955333334,
        "epsilon_ionic_eig": [
            27.705701338093316,
            11.529339811906697,
            11.03178751
        ],
        "epsilon_electronic": [
            [
                5.27332722,
                0.0,
                -0.35104045
            ],
            [
                0.0,
                4.86751131,
                0.0
            ],
            [
                -0.35098169,
                0.0,
                5.00173664
            ]
        ],
        "epsilon_electronic_avg": 5.047525056666667,
        "epsilon_electronic_eig": [
            5.513894961108987,
            4.761168898891013,
            4.86751131
        ]
    },
    "phonon": {
        "lowest_freq": -0.06200242093068439,
        "frequency": [
            -0.06200242093068439,
            -0.053467753033443706,
            -0.03918517651858529,
            3.4111553120471227,
            3.8338452046254474,
            4.047308193642354,
            4.556855609989271,
            4.635784928554877,
            5.198517845592534,
            5.548158401116536,
            5.808055883907043,
            5.848902384877776,
            6.547871029037132,
            6.626216279711797,
            6.876279033138055,
            7.362544182875022,
            8.296457643063535,
            8.452718937510031,
            9.05494544371321,
            9.265524955272095,
            9.62467592696071,
            10.125828924584873,
            10.961859501464726,
            11.445375884270781,
            11.78842347433187,
            12.39961406598717,
            13.09976210395604,
            14.924970267643959,
            15.78365035558004,
            17.53521819224735,
            17.81214221415794,
            18.00345427705315,
            18.020226472906565,
            18.86561432402977,
            21.79071311905265,
            22.553782113800303
        ]
    },
    "born_effective_charge": {
        "avg_abs_trace": 3.4400533333333336,
        "tensors": [
            [
                [
                    4.93348,
                    -0.00011,
                    0.15875
                ],
                [
                    -0.0,
                    4.23938,
                    0.0
                ],
                [
                    0.62112,
                    -7e-05,
                    4.57963
                ]
            ],
            [
                [
                    4.93348,
                    0.00011,
                    0.15875
                ],
                [
                    -0.0,
                    4.23955,
                    0.0
                ],
                [
                    0.62112,
                    7e-05,
                    4.57963
                ]
            ],
            [
                [
                    6.01524,
                    -0.00022,
                    -1.13776
                ],
                [
                    -0.0,
                    5.6057,
                    0.0
                ],
                [
                    -1.61101,
                    4e-05,
                    5.58705
                ]
            ],
            [
                [
                    6.01524,
                    0.00022,
                    -1.13776
                ],
                [
                    -0.0,
                    5.60553,
                    0.0
                ],
                [
                    -1.61101,
                    -4e-05,
                    5.58705
                ]
            ],
            [
                [
                    -1.98574,
                    -0.27093,
                    0.07621
                ],
                [
                    -0.20258,
                    -2.14886,
                    0.50919
                ],
                [
                    0.05248,
                    0.57306,
                    -3.55801
                ]
            ],
            [
                [
                    -1.98587,
                    0.27054,
                    0.07625
                ],
                [
                    0.20258,
                    -2.14886,
                    -0.50919
                ],
                [
                    0.05257,
                    -0.57245,
                    -3.55776
                ]
            ],
            [
                [
                    -1.98587,
                    -0.27054,
                    0.07625
                ],
                [
                    -0.20241,
                    -2.14896,
                    0.50902
                ],
                [
                    0.05257,
                    0.57245,
                    -3.55776
                ]
            ],
            [
                [
                    -1.98574,
                    0.27093,
                    0.07621
                ],
                [
                    0.20241,
                    -2.14896,
                    -0.50902
                ],
                [
                    0.05248,
                    -0.57306,
                    -3.55801
                ]
            ],
            [
                [
                    -3.48872,
                    -1.09869,
                    0.41328
                ],
                [
                    -1.05623,
                    -2.77369,
                    0.74025
                ],
                [
                    0.44254,
                    0.68139,
                    -1.52546
                ]
            ],
            [
                [
                    -3.48839,
                    1.09874,
                    0.41327
                ],
                [
                    1.05623,
                    -2.77369,
                    -0.74025
                ],
                [
                    0.44231,
                    -0.68128,
                    -1.52545
                ]
            ],
            [
                [
                    -3.48839,
                    -1.09874,
                    0.41327
                ],
                [
                    -1.05633,
                    -2.77357,
                    0.74061
                ],
                [
                    0.44231,
                    0.68128,
                    -1.52545
                ]
            ],
            [
                [
                    -3.48872,
                    1.09869,
                    0.41328
                ],
                [
                    1.05633,
                    -2.77357,
                    -0.74061
                ],
                [
                    0.44254,
                    -0.68139,
                    -1.52546
                ]
            ]
        ]
    },
    "band_gap": 3.4830000000000005,
    "is_direct": false,
    "formula": "LaNbO4"
}