{
    "mp_id": "mp-558362",
    "nelements": 4,
    "nsites": 28,
    "elements": [
        "Ca",
        "Ge",
        "Mg",
        "O"
    ],
    "structure": {
        "@module": "pymatgen.core.structure",
        "@class": "Structure",
        "charge": null,
        "lattice": {
            "matrix": [
                [
                    11.22569115,
                    0.0,
                    0.0
                ],
                [
                    0.0,
                    6.36486973,
                    0.0
                ],
                [
                    0.0,
                    0.0,
                    5.02555378
                ]
            ],
            "a": 11.22569115,
            "b": 6.36486973,
            "c": 5.02555378,
            "alpha": 90.0,
            "beta": 90.0,
            "gamma": 90.0,
            "volume": 359.0761281550166
        },
        "sites": [
            {
                "species": [
                    {
                        "element": "Ca",
                        "occu": 1
                    }
                ],
                "abc": [
                    0.7741385,
                    0.25,
                    0.50887652
                ],
                "xyz": [
                    8.690239708324274,
                    1.5912174325,
                    2.557386318639246
                ],
                "label": "Ca",
                "properties": {}
            },
            {
                "species": [
                    {
                        "element": "Ca",
                        "occu": 1
                    }
                ],
                "abc": [
                    0.2741385,
                    0.25,
                    0.99112348
                ],
                "xyz": [
                    3.0773941333242747,
                    1.5912174325,
                    4.980944351360754
                ],
                "label": "Ca",
                "properties": {}
            },
            {
                "species": [
                    {
                        "element": "Ca",
                        "occu": 1
                    }
                ],
                "abc": [
                    0.2258615,
                    0.75,
                    0.49112348
                ],
                "xyz": [
                    2.535451441675725,
                    4.7736522975,
                    2.4681674613607543
                ],
                "label": "Ca",
                "properties": {}
            },
            {
                "species": [
                    {
                        "element": "Ca",
                        "occu": 1
                    }
                ],
                "abc": [
                    0.7258615,
                    0.75,
                    0.00887652
                ],
                "xyz": [
                    8.148297016675725,
                    4.7736522975,
                    0.0446094286392456
                ],
                "label": "Ca",
                "properties": {}
            },
            {
                "species": [
                    {
                        "element": "Mg",
                        "occu": 1
                    }
                ],
                "abc": [
                    0.0,
                    0.5,
                    0.0
                ],
                "xyz": [
                    0.0,
                    3.182434865,
                    0.0
                ],
                "label": "Mg",
                "properties": {}
            },
            {
                "species": [
                    {
                        "element": "Mg",
                        "occu": 1
                    }
                ],
                "abc": [
                    0.5,
                    0.0,
                    0.5
                ],
                "xyz": [
                    5.612845575,
                    0.0,
                    2.51277689
                ],
                "label": "Mg",
                "properties": {}
            },
            {
                "species": [
                    {
                        "element": "Mg",
                        "occu": 1
                    }
                ],
                "abc": [
                    0.5,
                    0.5,
                    0.5
                ],
                "xyz": [
                    5.612845575,
                    3.182434865,
                    2.51277689
                ],
                "label": "Mg",
                "properties": {}
            },
            {
                "species": [
                    {
                        "element": "Mg",
                        "occu": 1
                    }
                ],
                "abc": [
                    0.0,
                    0.0,
                    0.0
                ],
                "xyz": [
                    0.0,
                    0.0,
                    0.0
                ],
                "label": "Mg",
                "properties": {}
            },
            {
                "species": [
                    {
                        "element": "Ge",
                        "occu": 1
                    }
                ],
                "abc": [
                    0.58011161,
                    0.25,
                    0.07541954
                ],
                "xyz": [
                    6.512153766389251,
                    1.5912174325,
                    0.37902495433286115
                ],
                "label": "Ge",
                "properties": {}
            },
            {
                "species": [
                    {
                        "element": "Ge",
                        "occu": 1
                    }
                ],
                "abc": [
                    0.08011161,
                    0.25,
                    0.42458046
                ],
                "xyz": [
                    0.8993081913892514,
                    1.5912174325,
                    2.1337519356671386
                ],
                "label": "Ge",
                "properties": {}
            },
            {
                "species": [
                    {
                        "element": "Ge",
                        "occu": 1
                    }
                ],
                "abc": [
                    0.91988839,
                    0.75,
                    0.57541954
                ],
                "xyz": [
                    10.326382958610749,
                    4.7736522975,
                    2.891801844332861
                ],
                "label": "Ge",
                "properties": {}
            },
            {
                "species": [
                    {
                        "element": "Ge",
                        "occu": 1
                    }
                ],
                "abc": [
                    0.41988839,
                    0.75,
                    0.92458046
                ],
                "xyz": [
                    4.713537383610748,
                    4.7736522975,
                    4.646528825667139
                ],
                "label": "Ge",
                "properties": {}
            },
            {
                "species": [
                    {
                        "element": "O",
                        "occu": 1
                    }
                ],
                "abc": [
                    0.14843021,
                    0.47167511,
                    0.26358633
                ],
                "xyz": [
                    1.6662316947896414,
                    3.0021506300334204,
                    1.3246672770878274
                ],
                "label": "O",
                "properties": {}
            },
            {
                "species": [
                    {
                        "element": "O",
                        "occu": 1
                    }
                ],
                "abc": [
                    0.35156979,
                    0.52832489,
                    0.76358633
                ],
                "xyz": [
                    3.946613880210358,
                    3.3627190999665797,
                    3.837444167087827
                ],
                "label": "O",
                "properties": {}
            },
            {
                "species": [
                    {
                        "element": "O",
                        "occu": 1
                    }
                ],
                "abc": [
                    0.0595039,
                    0.75,
                    0.75709348
                ],
                "xyz": [
                    0.6679724036204849,
                    4.7736522975,
                    3.8048140002273545
                ],
                "label": "O",
                "properties": {}
            },
            {
                "species": [
                    {
                        "element": "O",
                        "occu": 1
                    }
                ],
                "abc": [
                    0.64843021,
                    0.02832489,
                    0.23641367
                ],
                "xyz": [
                    7.279077269789641,
                    0.1802842349665797,
                    1.1881096129121727
                ],
                "label": "O",
                "properties": {}
            },
            {
                "species": [
                    {
                        "element": "O",
                        "occu": 1
                    }
                ],
                "abc": [
                    0.64843021,
                    0.47167511,
                    0.23641367
                ],
                "xyz": [
                    7.279077269789641,
                    3.0021506300334204,
                    1.1881096129121727
                ],
                "label": "O",
                "properties": {}
            },
            {
                "species": [
                    {
                        "element": "O",
                        "occu": 1
                    }
                ],
                "abc": [
                    0.5801542,
                    0.25,
                    0.72330647
                ],
                "xyz": [
                    6.512631868575329,
                    1.5912174325,
                    3.635015564406957
                ],
                "label": "O",
                "properties": {}
            },
            {
                "species": [
                    {
                        "element": "O",
                        "occu": 1
                    }
                ],
                "abc": [
                    0.35156979,
                    0.97167511,
                    0.76358633
                ],
                "xyz": [
                    3.946613880210358,
                    6.18458549503342,
                    3.837444167087827
                ],
                "label": "O",
                "properties": {}
            },
            {
                "species": [
                    {
                        "element": "O",
                        "occu": 1
                    }
                ],
                "abc": [
                    0.9198458,
                    0.75,
                    0.22330647
                ],
                "xyz": [
                    10.32590485642467,
                    4.7736522975,
                    1.1222386744069566
                ],
                "label": "O",
                "properties": {}
            },
            {
                "species": [
                    {
                        "element": "O",
                        "occu": 1
                    }
                ],
                "abc": [
                    0.5595039,
                    0.75,
                    0.74290652
                ],
                "xyz": [
                    6.280817978620485,
                    4.7736522975,
                    3.7335166697726456
                ],
                "label": "O",
                "properties": {}
            },
            {
                "species": [
                    {
                        "element": "O",
                        "occu": 1
                    }
                ],
                "abc": [
                    0.14843021,
                    0.02832489,
                    0.26358633
                ],
                "xyz": [
                    1.6662316947896414,
                    0.1802842349665797,
                    1.3246672770878274
                ],
                "label": "O",
                "properties": {}
            },
            {
                "species": [
                    {
                        "element": "O",
                        "occu": 1
                    }
                ],
                "abc": [
                    0.85156979,
                    0.52832489,
                    0.73641367
                ],
                "xyz": [
                    9.559459455210359,
                    3.3627190999665797,
                    3.700886502912173
                ],
                "label": "O",
                "properties": {}
            },
            {
                "species": [
                    {
                        "element": "O",
                        "occu": 1
                    }
                ],
                "abc": [
                    0.4198458,
                    0.75,
                    0.27669353
                ],
                "xyz": [
                    4.71305928142467,
                    4.7736522975,
                    1.3905382155930435
                ],
                "label": "O",
                "properties": {}
            },
            {
                "species": [
                    {
                        "element": "O",
                        "occu": 1
                    }
                ],
                "abc": [
                    0.0801542,
                    0.25,
                    0.77669353
                ],
                "xyz": [
                    0.8997862935753299,
                    1.5912174325,
                    3.9033151055930433
                ],
                "label": "O",
                "properties": {}
            },
            {
                "species": [
                    {
                        "element": "O",
                        "occu": 1
                    }
                ],
                "abc": [
                    0.85156979,
                    0.97167511,
                    0.73641367
                ],
                "xyz": [
                    9.559459455210359,
                    6.18458549503342,
                    3.700886502912173
                ],
                "label": "O",
                "properties": {}
            },
            {
                "species": [
                    {
                        "element": "O",
                        "occu": 1
                    }
                ],
                "abc": [
                    0.9404961,
                    0.25,
                    0.24290652
                ],
                "xyz": [
                    10.557718746379514,
                    1.5912174325,
                    1.2207397797726456
                ],
                "label": "O",
                "properties": {}
            },
            {
                "species": [
                    {
                        "element": "O",
                        "occu": 1
                    }
                ],
                "abc": [
                    0.4404961,
                    0.25,
                    0.25709348
                ],
                "xyz": [
                    4.944873171379514,
                    1.5912174325,
                    1.2920371102273545
                ],
                "label": "O",
                "properties": {}
            }
        ]
    },
    "spacegroup": {
        "source": "spglib",
        "symbol": "Pnma",
        "number": 62,
        "point_group": "mmm",
        "crystal_system": "orthorhombic",
        "hall": "-P 2ac 2n"
    },
    "dielectric": {
        "epsilon_ionic": [
            [
                4.96257729,
                1e-08,
                2e-08
            ],
            [
                1e-08,
                4.69342803,
                0.0
            ],
            [
                2e-08,
                0.0,
                4.41786492
            ]
        ],
        "epsilon_ionic_avg": 4.691290079999998,
        "epsilon_ionic_eig": [
            4.9625772900000005,
            4.417864919999999,
            4.693428029999996
        ],
        "epsilon_electronic": [
            [
                3.14913578,
                0.0,
                0.0
            ],
            [
                0.0,
                3.16656178,
                0.0
            ],
            [
                0.0,
                -0.0,
                3.33530996
            ]
        ],
        "epsilon_electronic_avg": 3.2170025066666668,
        "epsilon_electronic_eig": [
            3.14913578,
            3.16656178,
            3.33530996
        ]
    },
    "phonon": {
        "lowest_freq": -0.06496401575662983,
        "frequency": [
            -0.06496401575662983,
            -0.05357884595435191,
            -0.031074602519104034,
            2.2770522280599947,
            2.99729531009512,
            3.453925882968502,
            3.4928100288925483,
            3.860606486659443,
            4.120124416539972,
            4.286063018219086,
            4.559630880606,
            5.158194076764955,
            5.279009474820727,
            5.451245161489069,
            5.675756186412474,
            5.833982742938037,
            5.926213697004051,
            5.970367346639568,
            6.190737395474544,
            6.421132759960713,
            6.51659127633117,
            6.7902168805940155,
            6.878776044445949,
            6.932021740060929,
            7.0350900343909375,
            7.037226872210147,
            7.122289326265209,
            7.329907171535804,
            7.427778903495931,
            7.4827859781677954,
            8.27072680155235,
            8.335948870689645,
            8.388306663160298,
            8.409366382614479,
            8.632357154944964,
            8.644692599643568,
            8.718603243847529,
            9.020163993263004,
            9.64230947259581,
            9.855195439833944,
            10.280203579751111,
            10.379457355978955,
            10.386023628680379,
            10.45448260576813,
            10.561321521121032,
            10.682273132914325,
            10.886918886892728,
            10.940722911385196,
            10.947723534877378,
            10.97146374019112,
            11.020813895985516,
            11.109798020310727,
            11.362139121159927,
            11.409458353752996,
            12.069827585796263,
            12.189994270518502,
            12.366110645406911,
            12.368879091884969,
            12.748567067069278,
            13.1176922256098,
            13.184583094307914,
            13.626561605690437,
            13.634644741986149,
            13.841031812530453,
            13.87255604453896,
            13.884539111750673,
            14.11661643766621,
            14.559489571760148,
            19.434695427599635,
            19.561943796155752,
            20.421553939456356,
            20.498565676961753,
            20.52057889003797,
            20.70052531717471,
            20.71179571601582,
            21.75452615869861,
            21.980358677706093,
            22.026709770582492,
            22.18202450268519,
            22.521528133387925,
            22.611250329703264,
            22.73855343897141,
            22.779084675662972,
            22.932990848910414
        ]
    },
    "born_effective_charge": {
        "avg_abs_trace": 2.0898085714285712,
        "tensors": [
            [
                [
                    2.78529,
                    -0.0,
                    0.11532
                ],
                [
                    5e-05,
                    2.35565,
                    -6e-05
                ],
                [
                    0.00238,
                    -0.0,
                    2.10462
                ]
            ],
            [
                [
                    2.78529,
                    -0.0,
                    -0.11532
                ],
                [
                    5e-05,
                    2.35565,
                    6e-05
                ],
                [
                    -0.00202,
                    0.0,
                    2.10484
                ]
            ],
            [
                [
                    2.78482,
                    -0.0,
                    0.11557
                ],
                [
                    -5e-05,
                    2.35565,
                    6e-05
                ],
                [
                    0.00202,
                    0.0,
                    2.10484
                ]
            ],
            [
                [
                    2.78482,
                    -0.0,
                    -0.11557
                ],
                [
                    -5e-05,
                    2.35565,
                    -6e-05
                ],
                [
                    -0.00238,
                    -0.0,
                    2.10462
                ]
            ],
            [
                [
                    1.62409,
                    -0.36759,
                    0.137
                ],
                [
                    -0.31209,
                    2.06037,
                    -0.18589
                ],
                [
                    -0.05252,
                    0.09734,
                    2.36476
                ]
            ],
            [
                [
                    1.62409,
                    0.36759,
                    -0.137
                ],
                [
                    0.31209,
                    2.06037,
                    -0.18589
                ],
                [
                    0.05252,
                    0.09734,
                    2.36476
                ]
            ],
            [
                [
                    1.62409,
                    -0.36759,
                    -0.137
                ],
                [
                    -0.31209,
                    2.06037,
                    0.18589
                ],
                [
                    0.05252,
                    -0.09734,
                    2.36476
                ]
            ],
            [
                [
                    1.62409,
                    0.36759,
                    0.137
                ],
                [
                    0.31209,
                    2.06037,
                    0.18589
                ],
                [
                    -0.05252,
                    -0.09734,
                    2.36476
                ]
            ],
            [
                [
                    2.62384,
                    -0.0,
                    0.03616
                ],
                [
                    1e-05,
                    2.95774,
                    -7e-05
                ],
                [
                    0.02947,
                    0.0,
                    3.06681
                ]
            ],
            [
                [
                    2.62384,
                    -0.0,
                    -0.03616
                ],
                [
                    1e-05,
                    2.95774,
                    7e-05
                ],
                [
                    -0.02946,
                    0.0,
                    3.06667
                ]
            ],
            [
                [
                    2.62387,
                    -0.0,
                    -0.03617
                ],
                [
                    -1e-05,
                    2.95774,
                    -7e-05
                ],
                [
                    -0.02947,
                    0.0,
                    3.06681
                ]
            ],
            [
                [
                    2.62387,
                    -0.0,
                    0.03617
                ],
                [
                    -1e-05,
                    2.95774,
                    7e-05
                ],
                [
                    0.02946,
                    0.0,
                    3.06667
                ]
            ],
            [
                [
                    -1.72357,
                    -0.26254,
                    0.11494
                ],
                [
                    -0.28368,
                    -2.14508,
                    -0.00845
                ],
                [
                    0.0839,
                    -0.0776,
                    -1.68413
                ]
            ],
            [
                [
                    -1.72351,
                    -0.26241,
                    -0.11487
                ],
                [
                    -0.28349,
                    -2.14498,
                    0.00843
                ],
                [
                    -0.0839,
                    0.0776,
                    -1.68413
                ]
            ],
            [
                [
                    -2.13938,
                    -0.0,
                    -0.07477
                ],
                [
                    0.00027,
                    -1.55494,
                    0.0
                ],
                [
                    0.04507,
                    0.0,
                    -1.74541
                ]
            ],
            [
                [
                    -1.72357,
                    0.26254,
                    -0.11494
                ],
                [
                    0.28349,
                    -2.14498,
                    -0.00843
                ],
                [
                    -0.08399,
                    -0.07731,
                    -1.68398
                ]
            ],
            [
                [
                    -1.72357,
                    -0.26254,
                    -0.11494
                ],
                [
                    -0.28368,
                    -2.14508,
                    0.00845
                ],
                [
                    -0.08399,
                    0.07731,
                    -1.68398
                ]
            ],
            [
                [
                    -1.44653,
                    -0.0,
                    0.04435
                ],
                [
                    -0.0,
                    -1.52876,
                    2e-05
                ],
                [
                    0.04604,
                    0.0,
                    -2.42275
                ]
            ],
            [
                [
                    -1.72351,
                    0.26241,
                    -0.11487
                ],
                [
                    0.28368,
                    -2.14508,
                    -0.00845
                ],
                [
                    -0.0839,
                    -0.0776,
                    -1.68413
                ]
            ],
            [
                [
                    -1.44646,
                    -0.0,
                    -0.04441
                ],
                [
                    0.0,
                    -1.52876,
                    2e-05
                ],
                [
                    -0.04604,
                    0.0,
                    -2.42275
                ]
            ],
            [
                [
                    -2.13938,
                    -0.0,
                    0.07477
                ],
                [
                    0.00027,
                    -1.55494,
                    -0.0
                ],
                [
                    -0.04505,
                    -0.0,
                    -1.74558
                ]
            ],
            [
                [
                    -1.72357,
                    0.26254,
                    0.11494
                ],
                [
                    0.28349,
                    -2.14498,
                    0.00843
                ],
                [
                    0.0839,
                    0.0776,
                    -1.68413
                ]
            ],
            [
                [
                    -1.72351,
                    -0.26241,
                    0.11487
                ],
                [
                    -0.28349,
                    -2.14498,
                    -0.00843
                ],
                [
                    0.08399,
                    -0.07731,
                    -1.68398
                ]
            ],
            [
                [
                    -1.44646,
                    -0.0,
                    0.04441
                ],
                [
                    0.0,
                    -1.52876,
                    -2e-05
                ],
                [
                    0.04619,
                    0.0,
                    -2.4225
                ]
            ],
            [
                [
                    -1.44653,
                    -0.0,
                    -0.04435
                ],
                [
                    -0.0,
                    -1.52876,
                    -2e-05
                ],
                [
                    -0.04619,
                    0.0,
                    -2.4225
                ]
            ],
            [
                [
                    -1.72351,
                    0.26241,
                    0.11487
                ],
                [
                    0.28368,
                    -2.14508,
                    0.00845
                ],
                [
                    0.08399,
                    0.07731,
                    -1.68398
                ]
            ],
            [
                [
                    -2.13947,
                    -0.0,
                    -0.07481
                ],
                [
                    -0.00027,
                    -1.55494,
                    -0.0
                ],
                [
                    0.04505,
                    -0.0,
                    -1.74558
                ]
            ],
            [
                [
                    -2.13947,
                    -0.0,
                    0.07481
                ],
                [
                    -0.00027,
                    -1.55494,
                    0.0
                ],
                [
                    -0.04507,
                    0.0,
                    -1.74541
                ]
            ]
        ]
    },
    "band_gap": 3.5043,
    "is_direct": false,
    "formula": "CaMgGeO4"
}