{
    "mp_id": "mp-556966",
    "nelements": 4,
    "nsites": 28,
    "elements": [
        "K",
        "O",
        "Sr",
        "V"
    ],
    "structure": {
        "@module": "pymatgen.core.structure",
        "@class": "Structure",
        "charge": null,
        "lattice": {
            "matrix": [
                [
                    5.82932763,
                    0.0,
                    0.0
                ],
                [
                    0.0,
                    7.45480487,
                    0.0
                ],
                [
                    0.0,
                    0.0,
                    9.92490212
                ]
            ],
            "a": 5.82932763,
            "b": 7.45480487,
            "c": 9.92490212,
            "alpha": 90.0,
            "beta": 90.0,
            "gamma": 90.0,
            "volume": 431.30150902690394
        },
        "sites": [
            {
                "species": [
                    {
                        "element": "K",
                        "occu": 1
                    }
                ],
                "abc": [
                    0.48342763,
                    0.09307819,
                    0.57760568
                ],
                "xyz": [
                    2.818058040664417,
                    0.6938797441027854,
                    5.732679837956042
                ],
                "label": "K",
                "properties": {}
            },
            {
                "species": [
                    {
                        "element": "K",
                        "occu": 1
                    }
                ],
                "abc": [
                    0.51657237,
                    0.59307819,
                    0.92239432
                ],
                "xyz": [
                    3.011269589335583,
                    4.421282179102785,
                    9.154673342043958
                ],
                "label": "K",
                "properties": {}
            },
            {
                "species": [
                    {
                        "element": "K",
                        "occu": 1
                    }
                ],
                "abc": [
                    0.01657237,
                    0.90692181,
                    0.07760568
                ],
                "xyz": [
                    0.0966057743355831,
                    6.760925125897216,
                    0.7702287779560416
                ],
                "label": "K",
                "properties": {}
            },
            {
                "species": [
                    {
                        "element": "K",
                        "occu": 1
                    }
                ],
                "abc": [
                    0.98342763,
                    0.40692181,
                    0.42239432
                ],
                "xyz": [
                    5.732721855664416,
                    3.0335226908972146,
                    4.192222282043958
                ],
                "label": "K",
                "properties": {}
            },
            {
                "species": [
                    {
                        "element": "Sr",
                        "occu": 1
                    }
                ],
                "abc": [
                    0.97833418,
                    0.24969637,
                    0.80190478
                ],
                "xyz": [
                    5.703030466847394,
                    1.861437715097322,
                    7.958826451060133
                ],
                "label": "Sr",
                "properties": {}
            },
            {
                "species": [
                    {
                        "element": "Sr",
                        "occu": 1
                    }
                ],
                "abc": [
                    0.47833418,
                    0.25030363,
                    0.19809522
                ],
                "xyz": [
                    2.7883666518473933,
                    1.865964719902678,
                    1.9660756689398664
                ],
                "label": "Sr",
                "properties": {}
            },
            {
                "species": [
                    {
                        "element": "Sr",
                        "occu": 1
                    }
                ],
                "abc": [
                    0.52166582,
                    0.75030363,
                    0.30190478
                ],
                "xyz": [
                    3.040960978152606,
                    5.593367154902678,
                    2.9963753910601336
                ],
                "label": "Sr",
                "properties": {}
            },
            {
                "species": [
                    {
                        "element": "Sr",
                        "occu": 1
                    }
                ],
                "abc": [
                    0.02166582,
                    0.74969637,
                    0.69809522
                ],
                "xyz": [
                    0.12629716315260658,
                    5.588840150097322,
                    6.928526728939867
                ],
                "label": "Sr",
                "properties": {}
            },
            {
                "species": [
                    {
                        "element": "V",
                        "occu": 1
                    }
                ],
                "abc": [
                    0.4831707,
                    0.52525383,
                    0.5838848
                ],
                "xyz": [
                    2.816560311516441,
                    3.9156648098701523,
                    5.794999489355776
                ],
                "label": "V",
                "properties": {}
            },
            {
                "species": [
                    {
                        "element": "V",
                        "occu": 1
                    }
                ],
                "abc": [
                    0.0168293,
                    0.47474617,
                    0.0838848
                ],
                "xyz": [
                    0.098103503483559,
                    3.5391400601298484,
                    0.832548429355776
                ],
                "label": "V",
                "properties": {}
            },
            {
                "species": [
                    {
                        "element": "V",
                        "occu": 1
                    }
                ],
                "abc": [
                    0.9831707,
                    0.97474617,
                    0.4161152
                ],
                "xyz": [
                    5.731224126516441,
                    7.266542495129848,
                    4.129902630644224
                ],
                "label": "V",
                "properties": {}
            },
            {
                "species": [
                    {
                        "element": "V",
                        "occu": 1
                    }
                ],
                "abc": [
                    0.5168293,
                    0.02525383,
                    0.9161152
                ],
                "xyz": [
                    3.0127673184835593,
                    0.18826237487015213,
                    9.092353690644225
                ],
                "label": "V",
                "properties": {}
            },
            {
                "species": [
                    {
                        "element": "O",
                        "occu": 1
                    }
                ],
                "abc": [
                    0.50736657,
                    0.92878582,
                    0.07477332
                ],
                "xyz": [
                    2.957605965039329,
                    6.923917054122944,
                    0.7421178821874385
                ],
                "label": "O",
                "properties": {}
            },
            {
                "species": [
                    {
                        "element": "O",
                        "occu": 1
                    }
                ],
                "abc": [
                    0.24638935,
                    0.55773026,
                    0.17394692
                ],
                "xyz": [
                    1.4362842456927405,
                    4.1577702583943665,
                    1.7264061550754706
                ],
                "label": "O",
                "properties": {}
            },
            {
                "species": [
                    {
                        "element": "O",
                        "occu": 1
                    }
                ],
                "abc": [
                    0.25361065,
                    0.44226974,
                    0.67394692
                ],
                "xyz": [
                    1.4783795693072594,
                    3.297034611605634,
                    6.688857215075471
                ],
                "label": "O",
                "properties": {}
            },
            {
                "species": [
                    {
                        "element": "O",
                        "occu": 1
                    }
                ],
                "abc": [
                    0.07588336,
                    0.25158538,
                    0.06157031
                ],
                "xyz": [
                    0.44234896710523675,
                    1.8755199160448008,
                    0.6110793002480572
                ],
                "label": "O",
                "properties": {}
            },
            {
                "species": [
                    {
                        "element": "O",
                        "occu": 1
                    }
                ],
                "abc": [
                    0.74638935,
                    0.94226974,
                    0.82605308
                ],
                "xyz": [
                    4.35094806069274,
                    7.024437046605634,
                    8.19849596492453
                ],
                "label": "O",
                "properties": {}
            },
            {
                "species": [
                    {
                        "element": "O",
                        "occu": 1
                    }
                ],
                "abc": [
                    0.57588336,
                    0.24841462,
                    0.93842969
                ],
                "xyz": [
                    3.3570127821052367,
                    1.8518825189551995,
                    9.313822819751943
                ],
                "label": "O",
                "properties": {}
            },
            {
                "species": [
                    {
                        "element": "O",
                        "occu": 1
                    }
                ],
                "abc": [
                    0.76226704,
                    0.5135016,
                    0.16990163
                ],
                "xyz": [
                    4.443504317710315,
                    3.828054228432792,
                    1.6862570477784558
                ],
                "label": "O",
                "properties": {}
            },
            {
                "species": [
                    {
                        "element": "O",
                        "occu": 1
                    }
                ],
                "abc": [
                    0.26226704,
                    0.9864984,
                    0.83009837
                ],
                "xyz": [
                    1.5288405027103151,
                    7.354153076567208,
                    8.238645072221544
                ],
                "label": "O",
                "properties": {}
            },
            {
                "species": [
                    {
                        "element": "O",
                        "occu": 1
                    }
                ],
                "abc": [
                    0.99263343,
                    0.07121418,
                    0.57477332
                ],
                "xyz": [
                    5.786385479960671,
                    0.5308878158770566,
                    5.704568942187439
                ],
                "label": "O",
                "properties": {}
            },
            {
                "species": [
                    {
                        "element": "O",
                        "occu": 1
                    }
                ],
                "abc": [
                    0.75361065,
                    0.05773026,
                    0.32605308
                ],
                "xyz": [
                    4.393043384307259,
                    0.4303678233943662,
                    3.2360449049245297
                ],
                "label": "O",
                "properties": {}
            },
            {
                "species": [
                    {
                        "element": "O",
                        "occu": 1
                    }
                ],
                "abc": [
                    0.00736657,
                    0.57121418,
                    0.92522668
                ],
                "xyz": [
                    0.0429421500393291,
                    4.258290250877057,
                    9.182784237812562
                ],
                "label": "O",
                "properties": {}
            },
            {
                "species": [
                    {
                        "element": "O",
                        "occu": 1
                    }
                ],
                "abc": [
                    0.49263343,
                    0.42878582,
                    0.42522668
                ],
                "xyz": [
                    2.871721664960671,
                    3.196514619122943,
                    4.220333177812562
                ],
                "label": "O",
                "properties": {}
            },
            {
                "species": [
                    {
                        "element": "O",
                        "occu": 1
                    }
                ],
                "abc": [
                    0.23773296,
                    0.0135016,
                    0.33009837
                ],
                "xyz": [
                    1.3858233122896848,
                    0.10065179343279201,
                    3.2761940122215445
                ],
                "label": "O",
                "properties": {}
            },
            {
                "species": [
                    {
                        "element": "O",
                        "occu": 1
                    }
                ],
                "abc": [
                    0.42411664,
                    0.74841462,
                    0.56157031
                ],
                "xyz": [
                    2.472314847894763,
                    5.5792849539552,
                    5.573530360248058
                ],
                "label": "O",
                "properties": {}
            },
            {
                "species": [
                    {
                        "element": "O",
                        "occu": 1
                    }
                ],
                "abc": [
                    0.73773296,
                    0.4864984,
                    0.66990163
                ],
                "xyz": [
                    4.300487127289685,
                    3.626750641567208,
                    6.6487081077784564
                ],
                "label": "O",
                "properties": {}
            },
            {
                "species": [
                    {
                        "element": "O",
                        "occu": 1
                    }
                ],
                "abc": [
                    0.92411664,
                    0.75158538,
                    0.43842969
                ],
                "xyz": [
                    5.386978662894763,
                    5.602922351044801,
                    4.351371759751943
                ],
                "label": "O",
                "properties": {}
            }
        ]
    },
    "spacegroup": {
        "source": "spglib",
        "symbol": "P2_12_12_1",
        "number": 19,
        "point_group": "222",
        "crystal_system": "orthorhombic",
        "hall": "P 2ac 2ab"
    },
    "dielectric": {
        "epsilon_ionic": [
            [
                7.56296589,
                -0.0,
                -1e-08
            ],
            [
                -0.0,
                4.70018558,
                -1e-08
            ],
            [
                -1e-08,
                -1e-08,
                6.89075231
            ]
        ],
        "epsilon_ionic_avg": 6.384634593333334,
        "epsilon_ionic_eig": [
            7.56296589,
            6.89075231,
            4.70018558
        ],
        "epsilon_electronic": [
            [
                3.47576257,
                0.0,
                0.0
            ],
            [
                0.0,
                3.32009611,
                0.0
            ],
            [
                0.0,
                0.0,
                3.4328144
            ]
        ],
        "epsilon_electronic_avg": 3.4095576933333334,
        "epsilon_electronic_eig": [
            3.47576257,
            3.32009611,
            3.4328144
        ]
    },
    "phonon": {
        "lowest_freq": -0.11923689295437874,
        "frequency": [
            -0.11923689295437874,
            -0.07292286278851264,
            -0.028588424580939912,
            2.030691504772183,
            2.2589128788751918,
            2.4138332338706663,
            2.5223732677788933,
            2.666410810400366,
            2.823145471981847,
            2.9442566758928983,
            3.101591489640149,
            3.169458892736957,
            3.23607829226363,
            3.288289459271724,
            3.2884594199105766,
            3.42793211773604,
            3.6083656916213287,
            3.615078162024059,
            3.6721081204262784,
            3.77098662678818,
            3.7930882221632154,
            3.863789186021534,
            3.875014548624393,
            3.9611657769444193,
            4.051488542668,
            4.111093508111425,
            4.120332640427413,
            4.220583311583659,
            4.3805061848926545,
            4.408005854787844,
            4.579961063377361,
            4.610042649137886,
            4.753112010585637,
            4.9154657189727615,
            4.927094438322034,
            4.984372862491812,
            5.020593888457394,
            5.176259028329639,
            5.247809067432983,
            5.458813437978915,
            5.501396801907094,
            5.55067371926076,
            5.631912960851581,
            5.636755886674016,
            5.871007753830876,
            5.903033296527059,
            5.979079397783639,
            6.006017641217302,
            8.798623182350212,
            9.024950968343761,
            9.250210750631163,
            9.416687049773103,
            9.477183597968665,
            9.756042020352364,
            9.987033636071647,
            10.000178718948389,
            10.004866878201879,
            10.289961850787753,
            10.331607758082898,
            10.483524878479564,
            10.793434281946855,
            10.808493405893119,
            11.050070973400157,
            11.058562949069776,
            11.267400531930233,
            11.353034648418172,
            11.426912773009338,
            11.885591440074284,
            23.546447533859418,
            23.565260785177074,
            23.573518083958383,
            23.574465298087418,
            23.751534809291098,
            23.924379520819585,
            23.944478656291125,
            24.367662480007947,
            24.54973119365783,
            24.551117480910293,
            24.775993683610604,
            24.99449077412968,
            25.226724747729925,
            25.439594781313158,
            25.86046423426141,
            26.5994883187471
        ]
    },
    "born_effective_charge": {
        "avg_abs_trace": 2.026160476190476,
        "tensors": [
            [
                [
                    1.15373,
                    -0.00223,
                    0.02694
                ],
                [
                    0.0336,
                    1.35411,
                    0.02829
                ],
                [
                    0.00654,
                    -0.04759,
                    1.09488
                ]
            ],
            [
                [
                    1.15376,
                    0.00221,
                    0.02693
                ],
                [
                    -0.0336,
                    1.35411,
                    -0.02829
                ],
                [
                    0.00654,
                    0.0476,
                    1.0949
                ]
            ],
            [
                [
                    1.15376,
                    -0.00221,
                    -0.02693
                ],
                [
                    0.03364,
                    1.35409,
                    -0.0283
                ],
                [
                    -0.00654,
                    0.04759,
                    1.09488
                ]
            ],
            [
                [
                    1.15373,
                    0.00223,
                    -0.02694
                ],
                [
                    -0.03364,
                    1.35409,
                    0.0283
                ],
                [
                    -0.00654,
                    -0.0476,
                    1.0949
                ]
            ],
            [
                [
                    2.83353,
                    -0.0341,
                    -0.09926
                ],
                [
                    0.22113,
                    2.50062,
                    0.07151
                ],
                [
                    -0.07593,
                    -0.1695,
                    2.94494
                ]
            ],
            [
                [
                    2.83353,
                    0.0341,
                    0.09926
                ],
                [
                    -0.22135,
                    2.50099,
                    0.07166
                ],
                [
                    0.07604,
                    -0.16962,
                    2.94473
                ]
            ],
            [
                [
                    2.83333,
                    -0.03421,
                    0.09964
                ],
                [
                    0.22135,
                    2.50099,
                    -0.07166
                ],
                [
                    0.07593,
                    0.1695,
                    2.94494
                ]
            ],
            [
                [
                    2.83333,
                    0.03421,
                    -0.09964
                ],
                [
                    -0.22113,
                    2.50062,
                    -0.07151
                ],
                [
                    -0.07604,
                    0.16962,
                    2.94473
                ]
            ],
            [
                [
                    3.34962,
                    -0.12061,
                    -0.04223
                ],
                [
                    -0.03232,
                    2.92959,
                    -0.14557
                ],
                [
                    -0.01149,
                    -0.07819,
                    3.11347
                ]
            ],
            [
                [
                    3.34975,
                    -0.12085,
                    0.04192
                ],
                [
                    -0.03256,
                    2.92994,
                    0.14555
                ],
                [
                    0.01149,
                    0.07819,
                    3.11347
                ]
            ],
            [
                [
                    3.34962,
                    0.12061,
                    0.04223
                ],
                [
                    0.03256,
                    2.92994,
                    -0.14555
                ],
                [
                    0.01135,
                    -0.07813,
                    3.11339
                ]
            ],
            [
                [
                    3.34975,
                    0.12085,
                    -0.04192
                ],
                [
                    0.03232,
                    2.92959,
                    0.14557
                ],
                [
                    -0.01135,
                    0.07813,
                    3.11339
                ]
            ],
            [
                [
                    -0.9879,
                    -0.01497,
                    0.14089
                ],
                [
                    0.04076,
                    -1.4772,
                    0.83978
                ],
                [
                    0.06103,
                    0.70354,
                    -2.87542
                ]
            ],
            [
                [
                    -2.43677,
                    -0.60442,
                    -1.00023
                ],
                [
                    -0.59443,
                    -1.38957,
                    -0.51427
                ],
                [
                    -0.98743,
                    -0.40154,
                    -1.58163
                ]
            ],
            [
                [
                    -2.43653,
                    -0.60442,
                    1.00042
                ],
                [
                    -0.59451,
                    -1.38945,
                    0.51431
                ],
                [
                    0.98743,
                    0.40154,
                    -1.58163
                ]
            ],
            [
                [
                    -1.0942,
                    0.45993,
                    -0.0774
                ],
                [
                    0.41385,
                    -2.69839,
                    -0.34268
                ],
                [
                    -0.11317,
                    -0.25801,
                    -1.11272
                ]
            ],
            [
                [
                    -2.43677,
                    0.60442,
                    1.00023
                ],
                [
                    0.59451,
                    -1.38945,
                    -0.51431
                ],
                [
                    0.98729,
                    -0.40154,
                    -1.58166
                ]
            ],
            [
                [
                    -1.0942,
                    -0.45993,
                    0.0774
                ],
                [
                    -0.41394,
                    -2.69827,
                    -0.34262
                ],
                [
                    0.11314,
                    -0.25748,
                    -1.11261
                ]
            ],
            [
                [
                    -2.81811,
                    0.2663,
                    0.99754
                ],
                [
                    0.22936,
                    -1.21962,
                    -0.3603
                ],
                [
                    1.00196,
                    -0.1688,
                    -1.58363
                ]
            ],
            [
                [
                    -2.81811,
                    -0.2663,
                    -0.99754
                ],
                [
                    -0.22932,
                    -1.21957,
                    -0.36038
                ],
                [
                    -1.00188,
                    -0.16869,
                    -1.58352
                ]
            ],
            [
                [
                    -0.98787,
                    -0.01498,
                    -0.14079
                ],
                [
                    0.04062,
                    -1.47728,
                    -0.83992
                ],
                [
                    -0.06103,
                    -0.70354,
                    -2.87542
                ]
            ],
            [
                [
                    -2.43653,
                    0.60442,
                    -1.00042
                ],
                [
                    0.59443,
                    -1.38957,
                    0.51427
                ],
                [
                    -0.98729,
                    0.40154,
                    -1.58166
                ]
            ],
            [
                [
                    -0.9879,
                    0.01497,
                    -0.14089
                ],
                [
                    -0.04062,
                    -1.47728,
                    0.83992
                ],
                [
                    -0.06112,
                    0.70326,
                    -2.87511
                ]
            ],
            [
                [
                    -0.98787,
                    0.01498,
                    0.14079
                ],
                [
                    -0.04076,
                    -1.4772,
                    -0.83978
                ],
                [
                    0.06112,
                    -0.70326,
                    -2.87511
                ]
            ],
            [
                [
                    -2.81807,
                    -0.26583,
                    0.99703
                ],
                [
                    -0.22936,
                    -1.21962,
                    0.3603
                ],
                [
                    1.00188,
                    0.16869,
                    -1.58352
                ]
            ],
            [
                [
                    -1.09427,
                    0.45968,
                    0.07741
                ],
                [
                    0.41394,
                    -2.69827,
                    0.34262
                ],
                [
                    0.11317,
                    0.25801,
                    -1.11272
                ]
            ],
            [
                [
                    -2.81807,
                    0.26583,
                    -0.99703
                ],
                [
                    0.22932,
                    -1.21957,
                    0.36038
                ],
                [
                    -1.00196,
                    0.1688,
                    -1.58363
                ]
            ],
            [
                [
                    -1.09427,
                    -0.45968,
                    -0.07741
                ],
                [
                    -0.41385,
                    -2.69839,
                    0.34268
                ],
                [
                    -0.11314,
                    0.25748,
                    -1.11261
                ]
            ]
        ]
    },
    "band_gap": 3.9282,
    "is_direct": false,
    "formula": "KSrVO4"
}