{
    "mp_id": "mp-558188",
    "nelements": 4,
    "nsites": 32,
    "elements": [
        "Ag",
        "As",
        "Hg",
        "O"
    ],
    "structure": {
        "@module": "pymatgen.core.structure",
        "@class": "Structure",
        "charge": null,
        "lattice": {
            "matrix": [
                [
                    8.78501933,
                    0.0,
                    0.0
                ],
                [
                    0.0,
                    9.57239132,
                    0.0
                ],
                [
                    0.0,
                    0.0,
                    6.2861359
                ]
            ],
            "a": 8.78501933,
            "b": 9.57239132,
            "c": 6.2861359,
            "alpha": 90.0,
            "beta": 90.0,
            "gamma": 90.0,
            "volume": 528.6240668444291
        },
        "sites": [
            {
                "species": [
                    {
                        "element": "Ag",
                        "occu": 1
                    }
                ],
                "abc": [
                    0.02787942,
                    0.85687582,
                    0.5
                ],
                "xyz": [
                    0.2449212436091886,
                    8.202350661685882,
                    3.14306795
                ],
                "label": "Ag",
                "properties": {}
            },
            {
                "species": [
                    {
                        "element": "Ag",
                        "occu": 1
                    }
                ],
                "abc": [
                    0.47212058,
                    0.35687582,
                    0.5
                ],
                "xyz": [
                    4.147588421390812,
                    3.4161550016858824,
                    3.14306795
                ],
                "label": "Ag",
                "properties": {}
            },
            {
                "species": [
                    {
                        "element": "Ag",
                        "occu": 1
                    }
                ],
                "abc": [
                    0.52787942,
                    0.64312418,
                    0.5
                ],
                "xyz": [
                    4.637430908609189,
                    6.156236318314118,
                    3.14306795
                ],
                "label": "Ag",
                "properties": {}
            },
            {
                "species": [
                    {
                        "element": "Ag",
                        "occu": 1
                    }
                ],
                "abc": [
                    0.97212058,
                    0.14312418,
                    0.5
                ],
                "xyz": [
                    8.540098086390813,
                    1.3700406583141174,
                    3.14306795
                ],
                "label": "Ag",
                "properties": {}
            },
            {
                "species": [
                    {
                        "element": "Hg",
                        "occu": 1
                    }
                ],
                "abc": [
                    0.73996689,
                    0.4683112,
                    0.29015043
                ],
                "xyz": [
                    6.500623432209984,
                    4.4828580659387836,
                    1.823925034423437
                ],
                "label": "Hg",
                "properties": {}
            },
            {
                "species": [
                    {
                        "element": "Hg",
                        "occu": 1
                    }
                ],
                "abc": [
                    0.26003311,
                    0.5316888,
                    0.70984957
                ],
                "xyz": [
                    2.2843958977900165,
                    5.089533254061215,
                    4.462210865576563
                ],
                "label": "Hg",
                "properties": {}
            },
            {
                "species": [
                    {
                        "element": "Hg",
                        "occu": 1
                    }
                ],
                "abc": [
                    0.23996689,
                    0.0316888,
                    0.29015043
                ],
                "xyz": [
                    2.108113767209984,
                    0.303337594061216,
                    1.823925034423437
                ],
                "label": "Hg",
                "properties": {}
            },
            {
                "species": [
                    {
                        "element": "Hg",
                        "occu": 1
                    }
                ],
                "abc": [
                    0.26003311,
                    0.5316888,
                    0.29015043
                ],
                "xyz": [
                    2.2843958977900165,
                    5.089533254061215,
                    1.823925034423437
                ],
                "label": "Hg",
                "properties": {}
            },
            {
                "species": [
                    {
                        "element": "Hg",
                        "occu": 1
                    }
                ],
                "abc": [
                    0.23996689,
                    0.0316888,
                    0.70984957
                ],
                "xyz": [
                    2.108113767209984,
                    0.303337594061216,
                    4.462210865576563
                ],
                "label": "Hg",
                "properties": {}
            },
            {
                "species": [
                    {
                        "element": "Hg",
                        "occu": 1
                    }
                ],
                "abc": [
                    0.76003311,
                    0.9683112,
                    0.70984957
                ],
                "xyz": [
                    6.676905562790017,
                    9.269053725938784,
                    4.462210865576563
                ],
                "label": "Hg",
                "properties": {}
            },
            {
                "species": [
                    {
                        "element": "Hg",
                        "occu": 1
                    }
                ],
                "abc": [
                    0.76003311,
                    0.9683112,
                    0.29015043
                ],
                "xyz": [
                    6.676905562790017,
                    9.269053725938784,
                    1.823925034423437
                ],
                "label": "Hg",
                "properties": {}
            },
            {
                "species": [
                    {
                        "element": "Hg",
                        "occu": 1
                    }
                ],
                "abc": [
                    0.73996689,
                    0.4683112,
                    0.70984957
                ],
                "xyz": [
                    6.500623432209984,
                    4.4828580659387836,
                    4.462210865576563
                ],
                "label": "Hg",
                "properties": {}
            },
            {
                "species": [
                    {
                        "element": "As",
                        "occu": 1
                    }
                ],
                "abc": [
                    0.96693918,
                    0.71340199,
                    0.0
                ],
                "xyz": [
                    8.494579387234351,
                    6.828963016746727,
                    0.0
                ],
                "label": "As",
                "properties": {}
            },
            {
                "species": [
                    {
                        "element": "As",
                        "occu": 1
                    }
                ],
                "abc": [
                    0.46693918,
                    0.78659801,
                    0.0
                ],
                "xyz": [
                    4.10206972223435,
                    7.529623963253273,
                    0.0
                ],
                "label": "As",
                "properties": {}
            },
            {
                "species": [
                    {
                        "element": "As",
                        "occu": 1
                    }
                ],
                "abc": [
                    0.03306082,
                    0.28659801,
                    0.0
                ],
                "xyz": [
                    0.2904399427656506,
                    2.7434283032532734,
                    0.0
                ],
                "label": "As",
                "properties": {}
            },
            {
                "species": [
                    {
                        "element": "As",
                        "occu": 1
                    }
                ],
                "abc": [
                    0.53306082,
                    0.21340199,
                    0.0
                ],
                "xyz": [
                    4.682949607765651,
                    2.042767356746727,
                    0.0
                ],
                "label": "As",
                "properties": {}
            },
            {
                "species": [
                    {
                        "element": "O",
                        "occu": 1
                    }
                ],
                "abc": [
                    0.66981561,
                    0.08264465,
                    0.0
                ],
                "xyz": [
                    5.884343081385742,
                    0.7911069303044379,
                    0.0
                ],
                "label": "O",
                "properties": {}
            },
            {
                "species": [
                    {
                        "element": "O",
                        "occu": 1
                    }
                ],
                "abc": [
                    0.43453856,
                    0.19993558,
                    0.23395301
                ],
                "xyz": [
                    3.817429649230365,
                    1.9138616105511654,
                    1.4706604150740588
                ],
                "label": "O",
                "properties": {}
            },
            {
                "species": [
                    {
                        "element": "O",
                        "occu": 1
                    }
                ],
                "abc": [
                    0.8830742,
                    0.87606156,
                    0.0
                ],
                "xyz": [
                    7.757823916824287,
                    8.386004072729659,
                    0.0
                ],
                "label": "O",
                "properties": {}
            },
            {
                "species": [
                    {
                        "element": "O",
                        "occu": 1
                    }
                ],
                "abc": [
                    0.3830742,
                    0.62393844,
                    0.0
                ],
                "xyz": [
                    3.365314251824286,
                    5.972582907270341,
                    0.0
                ],
                "label": "O",
                "properties": {}
            },
            {
                "species": [
                    {
                        "element": "O",
                        "occu": 1
                    }
                ],
                "abc": [
                    0.33018439,
                    0.91735535,
                    0.0
                ],
                "xyz": [
                    2.9006762486142588,
                    8.781284389695562,
                    0.0
                ],
                "label": "O",
                "properties": {}
            },
            {
                "species": [
                    {
                        "element": "O",
                        "occu": 1
                    }
                ],
                "abc": [
                    0.56546144,
                    0.80006442,
                    0.23395301
                ],
                "xyz": [
                    4.967589680769636,
                    7.658529709448834,
                    1.4706604150740588
                ],
                "label": "O",
                "properties": {}
            },
            {
                "species": [
                    {
                        "element": "O",
                        "occu": 1
                    }
                ],
                "abc": [
                    0.1169258,
                    0.12393844,
                    0.0
                ],
                "xyz": [
                    1.0271954131757142,
                    1.1863872472703407,
                    0.0
                ],
                "label": "O",
                "properties": {}
            },
            {
                "species": [
                    {
                        "element": "O",
                        "occu": 1
                    }
                ],
                "abc": [
                    0.93453856,
                    0.30006442,
                    0.23395301
                ],
                "xyz": [
                    8.209939314230366,
                    2.8723340494488343,
                    1.4706604150740588
                ],
                "label": "O",
                "properties": {}
            },
            {
                "species": [
                    {
                        "element": "O",
                        "occu": 1
                    }
                ],
                "abc": [
                    0.6169258,
                    0.37606156,
                    0.0
                ],
                "xyz": [
                    5.419705078175714,
                    3.5998084127296592,
                    0.0
                ],
                "label": "O",
                "properties": {}
            },
            {
                "species": [
                    {
                        "element": "O",
                        "occu": 1
                    }
                ],
                "abc": [
                    0.06546144,
                    0.69993558,
                    0.23395301
                ],
                "xyz": [
                    0.5750800157696352,
                    6.700057270551166,
                    1.4706604150740588
                ],
                "label": "O",
                "properties": {}
            },
            {
                "species": [
                    {
                        "element": "O",
                        "occu": 1
                    }
                ],
                "abc": [
                    0.06546144,
                    0.69993558,
                    0.76604699
                ],
                "xyz": [
                    0.5750800157696352,
                    6.700057270551166,
                    4.8154754849259405
                ],
                "label": "O",
                "properties": {}
            },
            {
                "species": [
                    {
                        "element": "O",
                        "occu": 1
                    }
                ],
                "abc": [
                    0.16981561,
                    0.41735535,
                    0.0
                ],
                "xyz": [
                    1.4918334163857414,
                    3.9950887296955617,
                    0.0
                ],
                "label": "O",
                "properties": {}
            },
            {
                "species": [
                    {
                        "element": "O",
                        "occu": 1
                    }
                ],
                "abc": [
                    0.43453856,
                    0.19993558,
                    0.76604699
                ],
                "xyz": [
                    3.817429649230365,
                    1.9138616105511654,
                    4.8154754849259405
                ],
                "label": "O",
                "properties": {}
            },
            {
                "species": [
                    {
                        "element": "O",
                        "occu": 1
                    }
                ],
                "abc": [
                    0.83018439,
                    0.58264465,
                    0.0
                ],
                "xyz": [
                    7.293185913614259,
                    5.577302590304438,
                    0.0
                ],
                "label": "O",
                "properties": {}
            },
            {
                "species": [
                    {
                        "element": "O",
                        "occu": 1
                    }
                ],
                "abc": [
                    0.56546144,
                    0.80006442,
                    0.76604699
                ],
                "xyz": [
                    4.967589680769636,
                    7.658529709448834,
                    4.8154754849259405
                ],
                "label": "O",
                "properties": {}
            },
            {
                "species": [
                    {
                        "element": "O",
                        "occu": 1
                    }
                ],
                "abc": [
                    0.93453856,
                    0.30006442,
                    0.76604699
                ],
                "xyz": [
                    8.209939314230366,
                    2.8723340494488343,
                    4.8154754849259405
                ],
                "label": "O",
                "properties": {}
            }
        ]
    },
    "spacegroup": {
        "source": "spglib",
        "symbol": "Pbam",
        "number": 55,
        "point_group": "mmm",
        "crystal_system": "orthorhombic",
        "hall": "-P 2 2ab"
    },
    "dielectric": {
        "epsilon_ionic": [
            [
                9.55748445,
                -0.0,
                -2e-08
            ],
            [
                -0.0,
                6.23481569,
                5e-08
            ],
            [
                -2e-08,
                5e-08,
                4.65140658
            ]
        ],
        "epsilon_ionic_avg": 6.8145689066666675,
        "epsilon_ionic_eig": [
            9.55748445,
            4.65140658,
            6.2348156900000005
        ],
        "epsilon_electronic": [
            [
                5.34468636,
                0.0,
                0.0
            ],
            [
                0.0,
                4.96446975,
                0.0
            ],
            [
                0.0,
                0.0,
                6.73712178
            ]
        ],
        "epsilon_electronic_avg": 5.68209263,
        "epsilon_electronic_eig": [
            5.34468636,
            4.96446975,
            6.73712178
        ]
    },
    "phonon": {
        "lowest_freq": -0.06875228298857003,
        "frequency": [
            -0.06875228298857003,
            -0.029366224412882252,
            -0.014645308353214545,
            0.7253625930134907,
            0.7693007194133874,
            0.8497694112809897,
            0.8823738988920357,
            1.0396926137573124,
            1.1378326150103735,
            1.1756144927700845,
            1.220891296005878,
            1.2483870409486133,
            1.3891386161402428,
            1.5572915860733287,
            1.6608756401952962,
            1.7299108649840338,
            1.984855627399627,
            2.016940240816122,
            2.1401846894343945,
            2.269289661567145,
            2.308611110346122,
            2.3535710305171387,
            2.4376406250404807,
            2.4527184213069173,
            2.4937470836535347,
            2.5025751412632857,
            2.5564597425616715,
            2.8142751070713574,
            2.870104975100565,
            2.885148323794365,
            2.9093158522988016,
            3.0926222314361036,
            3.1469721171010008,
            3.4288466749241504,
            3.476362679389835,
            3.722902593693362,
            3.874151306979835,
            3.9361632616315196,
            4.04115796860928,
            4.065113441668925,
            4.133510898534316,
            4.135706425328658,
            4.200106973197121,
            4.215092609401561,
            4.609720507175369,
            4.9313382511607795,
            5.075862229501624,
            5.122729931619624,
            5.781202646823436,
            5.810542566071039,
            5.897646883132856,
            6.0071485026024405,
            6.019282089617287,
            6.030603784477008,
            6.243594715927094,
            6.656045296883703,
            7.042383631981373,
            7.765968644278385,
            7.922625408633588,
            8.366936073896586,
            8.827707984764016,
            8.884504819382416,
            9.002128405114574,
            9.029814668542725,
            9.345168314022748,
            9.50157154050317,
            10.103725859162953,
            10.206738711782242,
            12.131120595843626,
            12.266153273135009,
            12.271143599089948,
            12.332323044232318,
            12.478882455263696,
            12.573455746784205,
            12.823883482021353,
            13.209411491520004,
            13.411246053009,
            13.48720377659602,
            13.530468678504704,
            13.569297484698033,
            21.23640805917338,
            21.277977262373,
            21.768988008907783,
            21.790793648298827,
            22.549479953037388,
            23.1845731097046,
            23.212541755978403,
            23.254956692130754,
            23.284055944124272,
            23.28863462652495,
            23.381804766570475,
            23.468980389064022,
            23.586274572772457,
            23.768199216490824,
            23.985232025059567,
            24.069893220363028
        ]
    },
    "born_effective_charge": {
        "avg_abs_trace": 2.213126875,
        "tensors": [
            [
                [
                    0.92137,
                    -0.02671,
                    -0.0
                ],
                [
                    -0.0634,
                    1.29924,
                    0.0
                ],
                [
                    -7e-05,
                    0.00018,
                    1.32967
                ]
            ],
            [
                [
                    0.92128,
                    0.02638,
                    -0.0
                ],
                [
                    0.0634,
                    1.29924,
                    0.0
                ],
                [
                    7e-05,
                    0.00018,
                    1.32967
                ]
            ],
            [
                [
                    0.92137,
                    0.02671,
                    -0.0
                ],
                [
                    0.06378,
                    1.29943,
                    0.0
                ],
                [
                    -7e-05,
                    -0.00018,
                    1.32967
                ]
            ],
            [
                [
                    0.92128,
                    -0.02638,
                    -0.0
                ],
                [
                    -0.06378,
                    1.29943,
                    0.0
                ],
                [
                    7e-05,
                    -0.00018,
                    1.32967
                ]
            ],
            [
                [
                    1.60484,
                    -0.22251,
                    -0.49999
                ],
                [
                    -0.00038,
                    1.58839,
                    0.10711
                ],
                [
                    -0.33989,
                    0.28259,
                    2.5479
                ]
            ],
            [
                [
                    1.60493,
                    -0.22251,
                    -0.49984
                ],
                [
                    -0.00037,
                    1.58813,
                    0.10692
                ],
                [
                    -0.33956,
                    0.28244,
                    2.54661
                ]
            ],
            [
                [
                    1.60484,
                    0.22251,
                    -0.49999
                ],
                [
                    0.00037,
                    1.58813,
                    -0.10692
                ],
                [
                    -0.33989,
                    -0.28259,
                    2.5479
                ]
            ],
            [
                [
                    1.60493,
                    -0.22251,
                    0.49984
                ],
                [
                    -0.00037,
                    1.58813,
                    -0.10692
                ],
                [
                    0.33989,
                    -0.28259,
                    2.5479
                ]
            ],
            [
                [
                    1.60484,
                    0.22251,
                    0.49999
                ],
                [
                    0.00037,
                    1.58813,
                    0.10692
                ],
                [
                    0.33956,
                    0.28244,
                    2.54661
                ]
            ],
            [
                [
                    1.60493,
                    0.22251,
                    -0.49984
                ],
                [
                    0.00038,
                    1.58839,
                    -0.10711
                ],
                [
                    -0.33956,
                    -0.28244,
                    2.54661
                ]
            ],
            [
                [
                    1.60493,
                    0.22251,
                    0.49984
                ],
                [
                    0.00038,
                    1.58839,
                    0.10711
                ],
                [
                    0.33989,
                    0.28259,
                    2.5479
                ]
            ],
            [
                [
                    1.60484,
                    -0.22251,
                    0.49999
                ],
                [
                    -0.00038,
                    1.58839,
                    -0.10711
                ],
                [
                    0.33956,
                    -0.28244,
                    2.54661
                ]
            ],
            [
                [
                    4.06236,
                    0.20184,
                    -0.0
                ],
                [
                    0.89861,
                    4.12416,
                    0.0
                ],
                [
                    -0.00083,
                    0.00021,
                    3.33991
                ]
            ],
            [
                [
                    4.06236,
                    -0.20184,
                    -0.0
                ],
                [
                    -0.89858,
                    4.12426,
                    0.0
                ],
                [
                    -0.00083,
                    -0.00021,
                    3.33991
                ]
            ],
            [
                [
                    4.06219,
                    0.20163,
                    -0.0
                ],
                [
                    0.89858,
                    4.12426,
                    0.0
                ],
                [
                    0.00083,
                    -0.00021,
                    3.33991
                ]
            ],
            [
                [
                    4.06219,
                    -0.20163,
                    -0.0
                ],
                [
                    -0.89861,
                    4.12416,
                    0.0
                ],
                [
                    0.00083,
                    0.00021,
                    3.33991
                ]
            ],
            [
                [
                    -2.0222,
                    1.17124,
                    -0.0
                ],
                [
                    1.37454,
                    -2.51683,
                    0.0
                ],
                [
                    -0.00018,
                    5e-05,
                    -2.2945
                ]
            ],
            [
                [
                    -2.14127,
                    -0.53146,
                    0.91202
                ],
                [
                    -0.28739,
                    -1.77273,
                    -0.23157
                ],
                [
                    0.85931,
                    -0.09485,
                    -2.46741
                ]
            ],
            [
                [
                    -1.88867,
                    1.2612,
                    -0.0
                ],
                [
                    0.92664,
                    -2.53702,
                    0.0
                ],
                [
                    0.00033,
                    5e-05,
                    -2.53525
                ]
            ],
            [
                [
                    -1.88867,
                    -1.2612,
                    -0.0
                ],
                [
                    -0.92685,
                    -2.5379,
                    0.0
                ],
                [
                    0.00033,
                    -5e-05,
                    -2.53525
                ]
            ],
            [
                [
                    -2.02211,
                    1.17111,
                    -0.0
                ],
                [
                    1.37495,
                    -2.5172,
                    0.0
                ],
                [
                    0.00018,
                    -5e-05,
                    -2.2945
                ]
            ],
            [
                [
                    -2.14137,
                    -0.53135,
                    -0.9119
                ],
                [
                    -0.28743,
                    -1.77286,
                    0.23166
                ],
                [
                    -0.85931,
                    0.09485,
                    -2.46741
                ]
            ],
            [
                [
                    -1.88845,
                    1.26125,
                    -0.0
                ],
                [
                    0.92685,
                    -2.5379,
                    0.0
                ],
                [
                    -0.00033,
                    -5e-05,
                    -2.53525
                ]
            ],
            [
                [
                    -2.14127,
                    0.53146,
                    0.91202
                ],
                [
                    0.28743,
                    -1.77286,
                    0.23166
                ],
                [
                    0.85931,
                    0.09485,
                    -2.46741
                ]
            ],
            [
                [
                    -1.88845,
                    -1.26125,
                    -0.0
                ],
                [
                    -0.92664,
                    -2.53702,
                    0.0
                ],
                [
                    -0.00033,
                    5e-05,
                    -2.53525
                ]
            ],
            [
                [
                    -2.14137,
                    0.53135,
                    -0.9119
                ],
                [
                    0.28739,
                    -1.77273,
                    -0.23157
                ],
                [
                    -0.85931,
                    -0.09485,
                    -2.46741
                ]
            ],
            [
                [
                    -2.14137,
                    0.53135,
                    0.9119
                ],
                [
                    0.28739,
                    -1.77273,
                    0.23157
                ],
                [
                    0.85891,
                    0.09504,
                    -2.46694
                ]
            ],
            [
                [
                    -2.0222,
                    -1.17124,
                    -0.0
                ],
                [
                    -1.37495,
                    -2.5172,
                    0.0
                ],
                [
                    -0.00018,
                    -5e-05,
                    -2.2945
                ]
            ],
            [
                [
                    -2.14127,
                    -0.53146,
                    -0.91202
                ],
                [
                    -0.28739,
                    -1.77273,
                    0.23157
                ],
                [
                    -0.85891,
                    0.09504,
                    -2.46694
                ]
            ],
            [
                [
                    -2.02211,
                    -1.17111,
                    -0.0
                ],
                [
                    -1.37454,
                    -2.51683,
                    0.0
                ],
                [
                    0.00018,
                    5e-05,
                    -2.2945
                ]
            ],
            [
                [
                    -2.14137,
                    -0.53135,
                    0.9119
                ],
                [
                    -0.28743,
                    -1.77286,
                    -0.23166
                ],
                [
                    0.85891,
                    -0.09504,
                    -2.46694
                ]
            ],
            [
                [
                    -2.14127,
                    0.53146,
                    -0.91202
                ],
                [
                    0.28743,
                    -1.77286,
                    -0.23166
                ],
                [
                    -0.85891,
                    -0.09504,
                    -2.46694
                ]
            ]
        ]
    },
    "band_gap": 0.8935000000000002,
    "is_direct": true,
    "formula": "AgHg2AsO4"
}