{
    "mp_id": "mp-559106",
    "nelements": 4,
    "nsites": 18,
    "elements": [
        "K",
        "Li",
        "O",
        "Pb"
    ],
    "structure": {
        "@module": "pymatgen.core.structure",
        "@class": "Structure",
        "charge": null,
        "lattice": {
            "matrix": [
                [
                    5.93649754,
                    0.00054288,
                    0.00067546
                ],
                [
                    0.17696339,
                    5.96875973,
                    -0.00049528
                ],
                [
                    2.18763114,
                    1.98346971,
                    6.35050608
                ]
            ],
            "a": 5.936497603249829,
            "b": 5.971382503338089,
            "c": 7.003485529884541,
            "alpha": 73.00614414769224,
            "beta": 71.79050959006503,
            "gamma": 88.29653781093128,
            "volume": 225.01747001195184
        },
        "sites": [
            {
                "species": [
                    {
                        "element": "K",
                        "occu": 1
                    }
                ],
                "abc": [
                    0.48933136,
                    0.00902635,
                    0.25074848
                ],
                "xyz": [
                    3.4550569315358484,
                    0.5514937775061431,
                    1.5927057999805558
                ],
                "label": "K",
                "properties": {}
            },
            {
                "species": [
                    {
                        "element": "K",
                        "occu": 1
                    }
                ],
                "abc": [
                    0.51066864,
                    0.99097365,
                    0.74925152
                ],
                "xyz": [
                    4.846035138464153,
                    7.401278542493858,
                    4.757980460019444
                ],
                "label": "K",
                "properties": {}
            },
            {
                "species": [
                    {
                        "element": "Li",
                        "occu": 1
                    }
                ],
                "abc": [
                    0.94885951,
                    0.87024427,
                    0.90758198
                ],
                "xyz": [
                    7.772358124618739,
                    6.9949554375618614,
                    5.763814784151017
                ],
                "label": "Li",
                "properties": {}
            },
            {
                "species": [
                    {
                        "element": "Li",
                        "occu": 1
                    }
                ],
                "abc": [
                    0.05114049,
                    0.12975573,
                    0.09241802
                ],
                "xyz": [
                    0.5287339453812622,
                    0.9578168824381385,
                    0.5868714758489826
                ],
                "label": "Li",
                "properties": {}
            },
            {
                "species": [
                    {
                        "element": "Li",
                        "occu": 1
                    }
                ],
                "abc": [
                    0.31537589,
                    0.53932379,
                    0.15366572
                ],
                "xyz": [
                    2.3038326755688794,
                    3.524056631531481,
                    0.9758009966595258
                ],
                "label": "Li",
                "properties": {}
            },
            {
                "species": [
                    {
                        "element": "Li",
                        "occu": 1
                    }
                ],
                "abc": [
                    0.93400749,
                    0.83376018,
                    0.44756446
                ],
                "xyz": [
                    6.671384144479671,
                    5.86475179053023,
                    2.8424787643791616
                ],
                "label": "Li",
                "properties": {}
            },
            {
                "species": [
                    {
                        "element": "Li",
                        "occu": 1
                    }
                ],
                "abc": [
                    0.06599251,
                    0.16623982,
                    0.55243554
                ],
                "xyz": [
                    1.6297079255203308,
                    2.088020529469771,
                    3.508207495620838
                ],
                "label": "Li",
                "properties": {}
            },
            {
                "species": [
                    {
                        "element": "Li",
                        "occu": 1
                    }
                ],
                "abc": [
                    0.68462411,
                    0.46067621,
                    0.84633428
                ],
                "xyz": [
                    5.99725939443112,
                    4.428715688468519,
                    5.374885263340474
                ],
                "label": "Li",
                "properties": {}
            },
            {
                "species": [
                    {
                        "element": "Pb",
                        "occu": 1
                    }
                ],
                "abc": [
                    0.24645092,
                    0.49420965,
                    0.70305343
                ],
                "xyz": [
                    3.0885338718972606,
                    4.34443763328945,
                    4.464666777362825
                ],
                "label": "Pb",
                "properties": {}
            },
            {
                "species": [
                    {
                        "element": "Pb",
                        "occu": 1
                    }
                ],
                "abc": [
                    0.75354908,
                    0.50579035,
                    0.29694657
                ],
                "xyz": [
                    5.21255819810274,
                    3.6083346867105512,
                    1.8860194826371746
                ],
                "label": "Pb",
                "properties": {}
            },
            {
                "species": [
                    {
                        "element": "O",
                        "occu": 1
                    }
                ],
                "abc": [
                    0.63590608,
                    0.63748639,
                    0.56720669
                ],
                "xyz": [
                    5.128705650104633,
                    4.930385602672145,
                    3.602163328323233
                ],
                "label": "O",
                "properties": {}
            },
            {
                "species": [
                    {
                        "element": "O",
                        "occu": 1
                    }
                ],
                "abc": [
                    0.11803127,
                    0.8301339,
                    0.63432113
                ],
                "xyz": [
                    2.235256309843985,
                    6.213090617411678,
                    4.027928769421112
                ],
                "label": "O",
                "properties": {}
            },
            {
                "species": [
                    {
                        "element": "O",
                        "occu": 1
                    }
                ],
                "abc": [
                    0.88196873,
                    0.1698661,
                    0.36567887
                ],
                "xyz": [
                    6.0658357601560144,
                    1.739681702588323,
                    2.322757490578887
                ],
                "label": "O",
                "properties": {}
            },
            {
                "species": [
                    {
                        "element": "O",
                        "occu": 1
                    }
                ],
                "abc": [
                    0.34576696,
                    0.32717299,
                    0.97223537
                ],
                "xyz": [
                    4.237434719701537,
                    3.8814040848085805,
                    6.174258137888364
                ],
                "label": "O",
                "properties": {}
            },
            {
                "species": [
                    {
                        "element": "O",
                        "occu": 1
                    }
                ],
                "abc": [
                    0.65423304,
                    0.67282701,
                    0.02776463
                ],
                "xyz": [
                    4.063657350298465,
                    4.07136823519142,
                    0.17642812211163597
                ],
                "label": "O",
                "properties": {}
            },
            {
                "species": [
                    {
                        "element": "O",
                        "occu": 1
                    }
                ],
                "abc": [
                    0.94165012,
                    0.2331017,
                    0.83161846
                ],
                "xyz": [
                    7.450628527662312,
                    3.0413292686585334,
                    5.2817186828503155
                ],
                "label": "O",
                "properties": {}
            },
            {
                "species": [
                    {
                        "element": "O",
                        "occu": 1
                    }
                ],
                "abc": [
                    0.05834988,
                    0.7668983,
                    0.16838154
                ],
                "xyz": [
                    0.8504635423376878,
                    4.911443051341467,
                    1.068967577149684
                ],
                "label": "O",
                "properties": {}
            },
            {
                "species": [
                    {
                        "element": "O",
                        "occu": 1
                    }
                ],
                "abc": [
                    0.36409392,
                    0.36251361,
                    0.43279331
                ],
                "xyz": [
                    3.172386419895368,
                    3.0223867173278554,
                    2.7485229316767668
                ],
                "label": "O",
                "properties": {}
            }
        ]
    },
    "spacegroup": {
        "source": "spglib",
        "symbol": "P-1",
        "number": 2,
        "point_group": "-1",
        "crystal_system": "triclinic",
        "hall": "-P 1"
    },
    "dielectric": {
        "epsilon_ionic": [
            [
                6.53051226,
                0.48023548,
                -0.98958639
            ],
            [
                0.48023548,
                5.62672434,
                0.04565386
            ],
            [
                -0.98958639,
                0.04565386,
                5.90206716
            ]
        ],
        "epsilon_ionic_avg": 6.019767920000003,
        "epsilon_ionic_eig": [
            7.332969987960407,
            4.998180429081645,
            5.728153342957955
        ],
        "epsilon_electronic": [
            [
                3.85836431,
                -0.05927796,
                -0.12174188
            ],
            [
                -0.05927768,
                3.94814162,
                -0.10730196
            ],
            [
                -0.12174208,
                -0.1073025,
                3.90341283
            ]
        ],
        "epsilon_electronic_avg": 3.9033062533333336,
        "epsilon_electronic_eig": [
            3.7025262737257534,
            3.9633318044642523,
            4.044060681809995
        ]
    },
    "phonon": {
        "lowest_freq": -0.1160183778175405,
        "frequency": [
            -0.1160183778175405,
            -0.032424931506123196,
            -0.023934854169553325,
            2.520299071011436,
            2.8020203646781403,
            2.9079412347874363,
            3.3173435893981007,
            3.3479836132485192,
            3.719515112948437,
            4.54061559363966,
            4.6382522531532375,
            4.68931611521835,
            4.956322410255558,
            5.223557679367186,
            6.10870826554979,
            6.612062730945801,
            6.863591095616773,
            6.903568418969055,
            7.17499482440519,
            7.299374616851842,
            7.534921408673679,
            8.611313950461035,
            9.037008086867852,
            9.365942372107387,
            9.371078512689255,
            10.227568671638439,
            10.599335326229143,
            10.608496957945109,
            10.81520804861895,
            10.8173407223458,
            11.100741019946748,
            11.528961946857304,
            11.628631448732031,
            11.855681989195125,
            12.198729411960617,
            12.506398314142176,
            12.579332272272019,
            12.961183583307864,
            13.185703763766329,
            13.500543215182578,
            13.55365126923486,
            14.054427854470473,
            14.135779390402169,
            14.410641258673516,
            14.695461675715974,
            14.821214354836547,
            15.445742463974918,
            15.506847112849437,
            15.887476818785474,
            16.1774773302821,
            16.547741612303174,
            16.8438703734272,
            17.59962658906751,
            17.69267719777104
        ]
    },
    "born_effective_charge": {
        "avg_abs_trace": 1.688391851851852,
        "tensors": [
            [
                [
                    1.19458,
                    -0.02995,
                    0.02665
                ],
                [
                    0.04339,
                    1.32774,
                    -0.07805
                ],
                [
                    0.02876,
                    -0.08185,
                    1.22375
                ]
            ],
            [
                [
                    1.19463,
                    -0.02989,
                    0.02669
                ],
                [
                    0.04339,
                    1.32781,
                    -0.07818
                ],
                [
                    0.02868,
                    -0.08173,
                    1.22381
                ]
            ],
            [
                [
                    0.61431,
                    0.13257,
                    -0.19647
                ],
                [
                    -0.07469,
                    1.16401,
                    0.06853
                ],
                [
                    -0.05803,
                    -0.21585,
                    1.0697
                ]
            ],
            [
                [
                    0.61438,
                    0.13254,
                    -0.19645
                ],
                [
                    -0.07468,
                    1.16394,
                    0.06852
                ],
                [
                    -0.05794,
                    -0.216,
                    1.06964
                ]
            ],
            [
                [
                    1.21196,
                    -0.00355,
                    0.06099
                ],
                [
                    0.02894,
                    0.72486,
                    0.1292
                ],
                [
                    0.14827,
                    0.2583,
                    1.01247
                ]
            ],
            [
                [
                    1.0414,
                    0.06645,
                    0.23551
                ],
                [
                    -0.10935,
                    1.31324,
                    -0.19403
                ],
                [
                    0.1126,
                    -0.08084,
                    0.85519
                ]
            ],
            [
                [
                    1.04142,
                    0.06646,
                    0.23552
                ],
                [
                    -0.10928,
                    1.31327,
                    -0.19402
                ],
                [
                    0.11276,
                    -0.0808,
                    0.85516
                ]
            ],
            [
                [
                    1.21201,
                    -0.00365,
                    0.06097
                ],
                [
                    0.02896,
                    0.72473,
                    0.12913
                ],
                [
                    0.14837,
                    0.25805,
                    1.01252
                ]
            ],
            [
                [
                    3.41297,
                    -0.11013,
                    -0.46901
                ],
                [
                    -0.0014,
                    3.06928,
                    0.04458
                ],
                [
                    -0.53768,
                    0.0644,
                    3.55766
                ]
            ],
            [
                [
                    3.41312,
                    -0.11022,
                    -0.46896
                ],
                [
                    -0.00148,
                    3.06934,
                    0.04442
                ],
                [
                    -0.5372,
                    0.06401,
                    3.55767
                ]
            ],
            [
                [
                    -1.99158,
                    -0.07431,
                    0.37018
                ],
                [
                    -0.09226,
                    -1.61028,
                    -0.28043
                ],
                [
                    0.47078,
                    -0.32093,
                    -2.16075
                ]
            ],
            [
                [
                    -1.71998,
                    0.35912,
                    -0.1707
                ],
                [
                    0.43729,
                    -2.48123,
                    0.28388
                ],
                [
                    0.05078,
                    0.07937,
                    -1.62229
                ]
            ],
            [
                [
                    -1.72018,
                    0.35937,
                    -0.17084
                ],
                [
                    0.43732,
                    -2.48169,
                    0.28421
                ],
                [
                    0.05038,
                    0.08022,
                    -1.62232
                ]
            ],
            [
                [
                    -1.85389,
                    0.00591,
                    -0.19597
                ],
                [
                    -0.02075,
                    -1.49145,
                    -0.07913
                ],
                [
                    -0.36668,
                    0.10425,
                    -2.20106
                ]
            ],
            [
                [
                    -1.85382,
                    0.00587,
                    -0.19603
                ],
                [
                    -0.02056,
                    -1.49151,
                    -0.0789
                ],
                [
                    -0.36666,
                    0.10424,
                    -2.20111
                ]
            ],
            [
                [
                    -1.90978,
                    -0.3462,
                    0.33896
                ],
                [
                    -0.21126,
                    -2.0158,
                    0.10544
                ],
                [
                    0.1511,
                    0.19303,
                    -1.73449
                ]
            ],
            [
                [
                    -1.90964,
                    -0.34605,
                    0.33864
                ],
                [
                    -0.21121,
                    -2.01596,
                    0.10526
                ],
                [
                    0.15171,
                    0.19341,
                    -1.73483
                ]
            ],
            [
                [
                    -1.9919,
                    -0.07433,
                    0.37034
                ],
                [
                    -0.09238,
                    -1.61031,
                    -0.28044
                ],
                [
                    0.47,
                    -0.32127,
                    -2.16074
                ]
            ]
        ]
    },
    "band_gap": 1.5086,
    "is_direct": false,
    "formula": "KLi3PbO4"
}