{
    "mp_id": "mp-5127",
    "nelements": 3,
    "nsites": 12,
    "elements": [
        "Cu",
        "Li",
        "O"
    ],
    "structure": {
        "@module": "pymatgen.core.structure",
        "@class": "Structure",
        "charge": null,
        "lattice": {
            "matrix": [
                [
                    -4.17672049,
                    4.17672049,
                    1.91789746
                ],
                [
                    4.17672049,
                    -4.17672049,
                    1.91789746
                ],
                [
                    4.17672049,
                    4.17672049,
                    -1.91789746
                ]
            ],
            "a": 6.210339666253862,
            "b": 6.210339666253862,
            "c": 6.210339666253862,
            "alpha": 95.47272056782704,
            "beta": 95.47272056782704,
            "gamma": 144.0233397297583,
            "volume": 133.83083912500638
        },
        "sites": [
            {
                "species": [
                    {
                        "element": "Li",
                        "occu": 1
                    }
                ],
                "abc": [
                    0.14939027,
                    0.5,
                    0.64939027
                ],
                "xyz": [
                    4.17672049,
                    1.2479228034312646,
                    -2.220446049250313e-16
                ],
                "label": "Li",
                "properties": {}
            },
            {
                "species": [
                    {
                        "element": "Li",
                        "occu": 1
                    }
                ],
                "abc": [
                    0.85060973,
                    0.5,
                    0.35060973
                ],
                "xyz": [
                    0.0,
                    2.9287976865687355,
                    1.9178974600000003
                ],
                "label": "Li",
                "properties": {}
            },
            {
                "species": [
                    {
                        "element": "Li",
                        "occu": 1
                    }
                ],
                "abc": [
                    0.5,
                    0.85060973,
                    0.35060973
                ],
                "xyz": [
                    2.9287976865687355,
                    0.0,
                    1.9178974600000003
                ],
                "label": "Li",
                "properties": {}
            },
            {
                "species": [
                    {
                        "element": "Li",
                        "occu": 1
                    }
                ],
                "abc": [
                    0.5,
                    0.14939027,
                    0.64939027
                ],
                "xyz": [
                    1.2479228034312646,
                    4.17672049,
                    -2.220446049250313e-16
                ],
                "label": "Li",
                "properties": {}
            },
            {
                "species": [
                    {
                        "element": "Cu",
                        "occu": 1
                    }
                ],
                "abc": [
                    0.84265649,
                    0.15734351,
                    0.0
                ],
                "xyz": [
                    -2.86236076562896,
                    2.86236076562896,
                    1.91789746
                ],
                "label": "Cu",
                "properties": {}
            },
            {
                "species": [
                    {
                        "element": "Cu",
                        "occu": 1
                    }
                ],
                "abc": [
                    0.15734351,
                    0.15734351,
                    0.31468702
                ],
                "xyz": [
                    1.3143597243710399,
                    1.3143597243710399,
                    0.0
                ],
                "label": "Cu",
                "properties": {}
            },
            {
                "species": [
                    {
                        "element": "Cu",
                        "occu": 1
                    }
                ],
                "abc": [
                    0.84265649,
                    0.84265649,
                    0.68531298
                ],
                "xyz": [
                    2.86236076562896,
                    2.86236076562896,
                    1.9178974600000003
                ],
                "label": "Cu",
                "properties": {}
            },
            {
                "species": [
                    {
                        "element": "Cu",
                        "occu": 1
                    }
                ],
                "abc": [
                    0.15734351,
                    0.84265649,
                    0.0
                ],
                "xyz": [
                    2.86236076562896,
                    -2.86236076562896,
                    1.91789746
                ],
                "label": "Cu",
                "properties": {}
            },
            {
                "species": [
                    {
                        "element": "O",
                        "occu": 1
                    }
                ],
                "abc": [
                    0.0,
                    0.69150122,
                    0.69150122
                ],
                "xyz": [
                    5.776414628867996,
                    0.0,
                    0.0
                ],
                "label": "O",
                "properties": {}
            },
            {
                "species": [
                    {
                        "element": "O",
                        "occu": 1
                    }
                ],
                "abc": [
                    0.0,
                    0.30849878,
                    0.30849878
                ],
                "xyz": [
                    2.5770263511320044,
                    0.0,
                    0.0
                ],
                "label": "O",
                "properties": {}
            },
            {
                "species": [
                    {
                        "element": "O",
                        "occu": 1
                    }
                ],
                "abc": [
                    0.69150122,
                    0.0,
                    0.69150122
                ],
                "xyz": [
                    0.0,
                    5.776414628867996,
                    0.0
                ],
                "label": "O",
                "properties": {}
            },
            {
                "species": [
                    {
                        "element": "O",
                        "occu": 1
                    }
                ],
                "abc": [
                    0.30849878,
                    0.0,
                    0.30849878
                ],
                "xyz": [
                    0.0,
                    2.5770263511320044,
                    0.0
                ],
                "label": "O",
                "properties": {}
            }
        ]
    },
    "spacegroup": {
        "source": "spglib",
        "symbol": "I4/mmm",
        "number": 139,
        "point_group": "4/mmm",
        "crystal_system": "tetragonal",
        "hall": "-I 4 2"
    },
    "dielectric": {
        "epsilon_ionic": [
            [
                2.86068592,
                1e-08,
                -1e-08
            ],
            [
                1e-08,
                2.86060549,
                -1e-08
            ],
            [
                -1e-08,
                -1e-08,
                1.45183741
            ]
        ],
        "epsilon_ionic_avg": 2.39104294,
        "epsilon_ionic_eig": [
            2.8606859200012438,
            2.8606054899987576,
            1.45183741
        ],
        "epsilon_electronic": [
            [
                5.13579821,
                0.0,
                0.0
            ],
            [
                0.0,
                5.13579821,
                -0.0
            ],
            [
                0.0,
                0.0,
                4.46923554
            ]
        ],
        "epsilon_electronic_avg": 4.9136106533333335,
        "epsilon_electronic_eig": [
            5.13579821,
            5.13579821,
            4.46923554
        ]
    },
    "phonon": {
        "lowest_freq": -0.09207296182547425,
        "frequency": [
            -0.09207296182547425,
            -0.08027459771826151,
            -0.08027459771826151,
            2.641774599843453,
            2.6489483756667638,
            2.6489483756667638,
            2.938628391922855,
            3.5177130391622797,
            3.941206463795127,
            4.1247237085991735,
            4.611255882508175,
            4.611255882508175,
            6.7992976140379575,
            8.011961760955725,
            8.011961760955725,
            8.01722056560408,
            9.482278157634191,
            9.74476971526141,
            9.74476971526141,
            10.84558549967421,
            10.84558549967421,
            10.97385324735695,
            11.87455616380555,
            13.799121162224623,
            15.50709686416681,
            15.829834492006588,
            15.829834492006588,
            16.12663503191544,
            16.12663503191544,
            16.68506882400134,
            16.74978539842266,
            17.342278539198613,
            17.499577979090738,
            17.55251592929333,
            17.55251592929333,
            18.234280955165875
        ]
    },
    "born_effective_charge": {
        "avg_abs_trace": 1.0974675,
        "tensors": [
            [
                [
                    1.22118,
                    2e-05,
                    0.0
                ],
                [
                    -0.0,
                    0.86311,
                    0.0
                ],
                [
                    -0.0,
                    -3e-05,
                    1.1257
                ]
            ],
            [
                [
                    1.22118,
                    -2e-05,
                    0.0
                ],
                [
                    -0.0,
                    0.86308,
                    0.0
                ],
                [
                    -0.0,
                    3e-05,
                    1.1257
                ]
            ],
            [
                [
                    0.86309,
                    0.0,
                    0.0
                ],
                [
                    -2e-05,
                    1.22116,
                    0.0
                ],
                [
                    3e-05,
                    -0.0,
                    1.1257
                ]
            ],
            [
                [
                    0.86312,
                    0.0,
                    0.0
                ],
                [
                    2e-05,
                    1.22116,
                    0.0
                ],
                [
                    -3e-05,
                    -0.0,
                    1.1257
                ]
            ],
            [
                [
                    0.85095,
                    0.58331,
                    -0.0
                ],
                [
                    0.5832,
                    0.85104,
                    0.0
                ],
                [
                    5e-05,
                    -5e-05,
                    0.02667
                ]
            ],
            [
                [
                    0.85095,
                    -0.58331,
                    -0.0
                ],
                [
                    -0.58324,
                    0.85091,
                    0.0
                ],
                [
                    5e-05,
                    5e-05,
                    0.02667
                ]
            ],
            [
                [
                    0.85103,
                    -0.58322,
                    -0.0
                ],
                [
                    -0.5832,
                    0.85104,
                    0.0
                ],
                [
                    -5e-05,
                    -5e-05,
                    0.02667
                ]
            ],
            [
                [
                    0.85103,
                    0.58322,
                    0.0
                ],
                [
                    0.58324,
                    0.85091,
                    0.0
                ],
                [
                    -5e-05,
                    5e-05,
                    0.02667
                ]
            ],
            [
                [
                    -1.60749,
                    0.0,
                    0.0
                ],
                [
                    -6e-05,
                    -2.17872,
                    0.0
                ],
                [
                    3e-05,
                    -0.0,
                    -1.15237
                ]
            ],
            [
                [
                    -1.60756,
                    0.0,
                    -0.0
                ],
                [
                    6e-05,
                    -2.17872,
                    -0.0
                ],
                [
                    -3e-05,
                    -0.0,
                    -1.15237
                ]
            ],
            [
                [
                    -2.17873,
                    9e-05,
                    0.0
                ],
                [
                    -0.0,
                    -1.60753,
                    -0.0
                ],
                [
                    -0.0,
                    3e-05,
                    -1.15237
                ]
            ],
            [
                [
                    -2.17873,
                    -9e-05,
                    0.0
                ],
                [
                    -0.0,
                    -1.60745,
                    0.0
                ],
                [
                    -0.0,
                    -3e-05,
                    -1.15237
                ]
            ]
        ]
    },
    "band_gap": 1.7405999999999997,
    "is_direct": false,
    "formula": "LiCuO"
}