{
    "mp_id": "mp-554034",
    "nelements": 4,
    "nsites": 20,
    "elements": [
        "K",
        "La",
        "Nb",
        "O"
    ],
    "structure": {
        "@module": "pymatgen.core.structure",
        "@class": "Structure",
        "charge": null,
        "lattice": {
            "matrix": [
                [
                    6.36924043,
                    -2.88613481,
                    -0.00047896
                ],
                [
                    6.36924043,
                    2.88613481,
                    -0.00047896
                ],
                [
                    -2.4675678,
                    0.0,
                    8.53521671
                ]
            ],
            "a": 6.992638845675,
            "b": 6.992638845675,
            "c": 8.884751833014812,
            "alpha": 104.65727362729002,
            "beta": 104.65727362729002,
            "gamma": 48.754022872375415,
            "volume": 313.79019015360143
        },
        "sites": [
            {
                "species": [
                    {
                        "element": "K",
                        "occu": 1
                    }
                ],
                "abc": [
                    0.11555867,
                    0.11555867,
                    0.48110303
                ],
                "xyz": [
                    0.28488756069162235,
                    0.0,
                    4.106207924926465
                ],
                "label": "K",
                "properties": {}
            },
            {
                "species": [
                    {
                        "element": "K",
                        "occu": 1
                    }
                ],
                "abc": [
                    0.88444133,
                    0.88444133,
                    0.51889697
                ],
                "xyz": [
                    9.986025499308377,
                    0.0,
                    4.428050865073535
                ],
                "label": "K",
                "properties": {}
            },
            {
                "species": [
                    {
                        "element": "La",
                        "occu": 1
                    }
                ],
                "abc": [
                    0.12924267,
                    0.12924267,
                    0.9284931
                ],
                "xyz": [
                    -0.6447643979918836,
                    0.0,
                    7.924766018101254
                ],
                "label": "La",
                "properties": {}
            },
            {
                "species": [
                    {
                        "element": "La",
                        "occu": 1
                    }
                ],
                "abc": [
                    0.87075733,
                    0.87075733,
                    0.0715069
                ],
                "xyz": [
                    10.915677457991883,
                    0.0,
                    0.6094927718987454
                ],
                "label": "La",
                "properties": {}
            },
            {
                "species": [
                    {
                        "element": "La",
                        "occu": 1
                    }
                ],
                "abc": [
                    0.58915184,
                    0.58915184,
                    0.20492576
                ],
                "xyz": [
                    6.999231230707253,
                    0.0,
                    1.748521410730877
                ],
                "label": "La",
                "properties": {}
            },
            {
                "species": [
                    {
                        "element": "La",
                        "occu": 1
                    }
                ],
                "abc": [
                    0.41084816,
                    0.41084816,
                    0.79507424
                ],
                "xyz": [
                    3.2716818292927456,
                    0.0,
                    6.785737379269124
                ],
                "label": "La",
                "properties": {}
            },
            {
                "species": [
                    {
                        "element": "Nb",
                        "occu": 1
                    }
                ],
                "abc": [
                    0.3409839,
                    0.3409839,
                    0.2955476
                ],
                "xyz": [
                    3.6143331425908736,
                    0.0,
                    2.522236178822908
                ],
                "label": "Nb",
                "properties": {}
            },
            {
                "species": [
                    {
                        "element": "Nb",
                        "occu": 1
                    }
                ],
                "abc": [
                    0.6590161,
                    0.6590161,
                    0.7044524
                ],
                "xyz": [
                    6.656579917409125,
                    0.0,
                    6.012022611177092
                ],
                "label": "Nb",
                "properties": {}
            },
            {
                "species": [
                    {
                        "element": "O",
                        "occu": 1
                    }
                ],
                "abc": [
                    0.7803771,
                    0.31378294,
                    0.70860798
                ],
                "xyz": [
                    5.220430129387373,
                    -1.34665364731871,
                    6.047598612842587
                ],
                "label": "O",
                "properties": {}
            },
            {
                "species": [
                    {
                        "element": "O",
                        "occu": 1
                    }
                ],
                "abc": [
                    0.68621706,
                    0.2196229,
                    0.29139202
                ],
                "xyz": [
                    5.050482930612627,
                    -1.3466536473187096,
                    2.4866601771574124
                ],
                "label": "O",
                "properties": {}
            },
            {
                "species": [
                    {
                        "element": "O",
                        "occu": 1
                    }
                ],
                "abc": [
                    0.74807287,
                    0.25192713,
                    0.0
                ],
                "xyz": [
                    6.36924043,
                    -1.4319434910472093,
                    -0.00047896
                ],
                "label": "O",
                "properties": {}
            },
            {
                "species": [
                    {
                        "element": "O",
                        "occu": 1
                    }
                ],
                "abc": [
                    0.00140396,
                    0.47028654,
                    0.16633271
                ],
                "xyz": [
                    2.5938729637641766,
                    1.3532583359406098,
                    1.419459804929704
                ],
                "label": "O",
                "properties": {}
            },
            {
                "species": [
                    {
                        "element": "O",
                        "occu": 1
                    }
                ],
                "abc": [
                    0.2196229,
                    0.68621706,
                    0.29139202
                ],
                "xyz": [
                    5.050482930612627,
                    1.3466536473187096,
                    2.4866601771574124
                ],
                "label": "O",
                "properties": {}
            },
            {
                "species": [
                    {
                        "element": "O",
                        "occu": 1
                    }
                ],
                "abc": [
                    0.99859604,
                    0.52971346,
                    0.83366729
                ],
                "xyz": [
                    7.677040096235823,
                    -1.3532583359406103,
                    7.114798985070296
                ],
                "label": "O",
                "properties": {}
            },
            {
                "species": [
                    {
                        "element": "O",
                        "occu": 1
                    }
                ],
                "abc": [
                    0.52971346,
                    0.99859604,
                    0.83366729
                ],
                "xyz": [
                    7.677040096235823,
                    1.3532583359406103,
                    7.114798985070296
                ],
                "label": "O",
                "properties": {}
            },
            {
                "species": [
                    {
                        "element": "O",
                        "occu": 1
                    }
                ],
                "abc": [
                    0.67578388,
                    0.67578388,
                    0.50190959
                ],
                "xyz": [
                    7.369964078081335,
                    0.0,
                    4.28325977258292
                ],
                "label": "O",
                "properties": {}
            },
            {
                "species": [
                    {
                        "element": "O",
                        "occu": 1
                    }
                ],
                "abc": [
                    0.32421612,
                    0.32421612,
                    0.49809041
                ],
                "xyz": [
                    2.900948981918665,
                    0.0,
                    4.25099901741708
                ],
                "label": "O",
                "properties": {}
            },
            {
                "species": [
                    {
                        "element": "O",
                        "occu": 1
                    }
                ],
                "abc": [
                    0.25192713,
                    0.74807287,
                    0.0
                ],
                "xyz": [
                    6.36924043,
                    1.4319434910472093,
                    -0.00047896
                ],
                "label": "O",
                "properties": {}
            },
            {
                "species": [
                    {
                        "element": "O",
                        "occu": 1
                    }
                ],
                "abc": [
                    0.47028654,
                    0.00140396,
                    0.16633271
                ],
                "xyz": [
                    2.5938729637641766,
                    -1.3532583359406098,
                    1.419459804929704
                ],
                "label": "O",
                "properties": {}
            },
            {
                "species": [
                    {
                        "element": "O",
                        "occu": 1
                    }
                ],
                "abc": [
                    0.31378294,
                    0.7803771,
                    0.70860798
                ],
                "xyz": [
                    5.220430129387373,
                    1.34665364731871,
                    6.047598612842587
                ],
                "label": "O",
                "properties": {}
            }
        ]
    },
    "spacegroup": {
        "source": "spglib",
        "symbol": "C2/m",
        "number": 12,
        "point_group": "2/m",
        "crystal_system": "monoclinic",
        "hall": "-C 2y"
    },
    "dielectric": {
        "epsilon_ionic": [
            [
                11.07345766,
                -0.0,
                -0.046911
            ],
            [
                -0.0,
                11.33229421,
                -0.0
            ],
            [
                -0.046911,
                -0.0,
                8.68005052
            ]
        ],
        "epsilon_ionic_avg": 10.36193413,
        "epsilon_ionic_eig": [
            11.074376766961215,
            8.679131413038785,
            11.33229421
        ],
        "epsilon_electronic": [
            [
                4.23321718,
                0.0,
                -0.00903326
            ],
            [
                0.0,
                4.26709943,
                0.0
            ],
            [
                -0.00917545,
                0.0,
                4.10357975
            ]
        ],
        "epsilon_electronic_avg": 4.2012987866666665,
        "epsilon_electronic_eig": [
            4.233853411640557,
            4.102943518359442,
            4.26709943
        ]
    },
    "phonon": {
        "lowest_freq": -0.028847007506403094,
        "frequency": [
            -0.028847007506403094,
            -0.025619139655715183,
            -0.017308409303227835,
            2.8803684001172596,
            2.889666240208908,
            3.2706196550312283,
            3.355109963447933,
            3.3661750710413285,
            3.5359776774763105,
            3.677927156546161,
            3.7808948160894116,
            4.009378600396688,
            4.035911432465628,
            4.121360902809734,
            4.1968364716785915,
            4.269223184101954,
            4.552148547171356,
            4.668298549116939,
            4.976707062755788,
            5.038560217879606,
            5.295604745146099,
            5.528282904401432,
            5.6445507845745375,
            5.713134251014203,
            5.808925959833064,
            6.210921102149736,
            6.240178944855882,
            6.589800150620444,
            6.605514694845639,
            6.853408802014055,
            6.984998871606407,
            8.087060433083828,
            8.553586875420825,
            8.753317452222301,
            8.868492168298129,
            9.317881897833487,
            9.5015856619116,
            9.605293758599585,
            10.089187408054844,
            10.38655547710828,
            10.76143700570836,
            10.766190039398873,
            10.830228490818817,
            11.293099264750548,
            11.873998280118116,
            12.082513586783568,
            13.152392773378471,
            13.862193658621624,
            14.416412124576626,
            14.666970601735828,
            14.797906785514826,
            14.958018693246723,
            16.487294093627032,
            16.528903012011295,
            17.10502198187126,
            17.181108501464696,
            20.42378155550663,
            20.686536712453087,
            22.639886986054698,
            22.86647930517847
        ]
    },
    "born_effective_charge": {
        "avg_abs_trace": 2.8302438333333333,
        "tensors": [
            [
                [
                    1.2382,
                    -0.0,
                    0.13422
                ],
                [
                    -6e-05,
                    1.34197,
                    1e-05
                ],
                [
                    -0.01437,
                    0.0,
                    1.26699
                ]
            ],
            [
                [
                    1.23824,
                    -0.0,
                    0.13422
                ],
                [
                    6e-05,
                    1.34197,
                    -1e-05
                ],
                [
                    -0.01438,
                    0.0,
                    1.26703
                ]
            ],
            [
                [
                    3.75284,
                    -0.0,
                    -0.34835
                ],
                [
                    0.00011,
                    4.57478,
                    0.00012
                ],
                [
                    -0.21373,
                    0.0,
                    3.69502
                ]
            ],
            [
                [
                    3.7533,
                    -0.0,
                    -0.34863
                ],
                [
                    -0.00011,
                    4.57478,
                    -0.00012
                ],
                [
                    -0.21363,
                    0.0,
                    3.69479
                ]
            ],
            [
                [
                    4.77292,
                    -0.0,
                    -0.46211
                ],
                [
                    -0.00018,
                    3.66781,
                    -6e-05
                ],
                [
                    0.35566,
                    0.0,
                    4.31824
                ]
            ],
            [
                [
                    4.77282,
                    -0.0,
                    -0.46202
                ],
                [
                    0.00018,
                    3.66781,
                    6e-05
                ],
                [
                    0.35582,
                    0.0,
                    4.31813
                ]
            ],
            [
                [
                    4.75688,
                    -0.0,
                    0.81349
                ],
                [
                    -2e-05,
                    5.06997,
                    0.00012
                ],
                [
                    0.08982,
                    0.0,
                    3.9981
                ]
            ],
            [
                [
                    4.7568,
                    -0.0,
                    0.81351
                ],
                [
                    2e-05,
                    5.06997,
                    -0.00012
                ],
                [
                    0.08976,
                    0.0,
                    3.99797
                ]
            ],
            [
                [
                    -2.70191,
                    -0.47622,
                    0.22511
                ],
                [
                    -0.50663,
                    -2.6041,
                    0.44616
                ],
                [
                    0.02605,
                    0.28516,
                    -1.49702
                ]
            ],
            [
                [
                    -2.70193,
                    0.47625,
                    0.22513
                ],
                [
                    0.50663,
                    -2.6041,
                    -0.44616
                ],
                [
                    0.02614,
                    -0.28521,
                    -1.497
                ]
            ],
            [
                [
                    -2.62656,
                    9e-05,
                    0.21814
                ],
                [
                    -0.0,
                    -2.9088,
                    0.0
                ],
                [
                    -0.10568,
                    7e-05,
                    -2.41517
                ]
            ],
            [
                [
                    -2.58111,
                    0.71061,
                    -0.65871
                ],
                [
                    0.64377,
                    -2.80405,
                    0.55751
                ],
                [
                    -0.48639,
                    0.40367,
                    -1.95245
                ]
            ],
            [
                [
                    -2.70193,
                    -0.47625,
                    0.22513
                ],
                [
                    -0.50664,
                    -2.60401,
                    0.44608
                ],
                [
                    0.02614,
                    0.28521,
                    -1.497
                ]
            ],
            [
                [
                    -2.5811,
                    0.71069,
                    -0.65861
                ],
                [
                    0.64344,
                    -2.8042,
                    0.55754
                ],
                [
                    -0.48622,
                    0.40382,
                    -1.95243
                ]
            ],
            [
                [
                    -2.5811,
                    -0.71069,
                    -0.65861
                ],
                [
                    -0.64377,
                    -2.80405,
                    -0.55751
                ],
                [
                    -0.48622,
                    -0.40382,
                    -1.95243
                ]
            ],
            [
                [
                    -1.32841,
                    -0.0,
                    0.51167
                ],
                [
                    -4e-05,
                    -0.92938,
                    -2e-05
                ],
                [
                    0.80858,
                    0.0,
                    -3.96385
                ]
            ],
            [
                [
                    -1.32836,
                    -0.0,
                    0.5119
                ],
                [
                    4e-05,
                    -0.92938,
                    2e-05
                ],
                [
                    0.8087,
                    0.0,
                    -3.96426
                ]
            ],
            [
                [
                    -2.62656,
                    -9e-05,
                    0.21814
                ],
                [
                    -0.0,
                    -2.90878,
                    0.0
                ],
                [
                    -0.10568,
                    -7e-05,
                    -2.41517
                ]
            ],
            [
                [
                    -2.58111,
                    -0.71061,
                    -0.65871
                ],
                [
                    -0.64344,
                    -2.8042,
                    -0.55754
                ],
                [
                    -0.48639,
                    -0.40367,
                    -1.95245
                ]
            ],
            [
                [
                    -2.70191,
                    0.47622,
                    0.22511
                ],
                [
                    0.50664,
                    -2.60401,
                    -0.44608
                ],
                [
                    0.02605,
                    -0.28516,
                    -1.49702
                ]
            ]
        ]
    },
    "band_gap": 3.7143,
    "is_direct": false,
    "formula": "KLa2NbO6"
}