{
    "mp_id": "mp-558553",
    "nelements": 4,
    "nsites": 35,
    "elements": [
        "O",
        "Si",
        "Sr",
        "Ti"
    ],
    "structure": {
        "@module": "pymatgen.core.structure",
        "@class": "Structure",
        "charge": null,
        "lattice": {
            "matrix": [
                [
                    6.87250656,
                    -2.84824276,
                    -0.00027696
                ],
                [
                    6.87250656,
                    2.84824276,
                    -0.00027696
                ],
                [
                    -4.82015618,
                    0.0,
                    10.96429232
                ]
            ],
            "a": 7.439343607727921,
            "b": 7.439343607727921,
            "c": 11.977045198128092,
            "alpha": 111.82785397146326,
            "beta": 111.82785397146326,
            "gamma": 45.02216230133113,
            "volume": 429.23494564989176
        },
        "sites": [
            {
                "species": [
                    {
                        "element": "Sr",
                        "occu": 1
                    }
                ],
                "abc": [
                    0.04572659,
                    0.04572659,
                    0.73805665
                ],
                "xyz": [
                    -2.929035743204736,
                    0.0,
                    8.092243530447195
                ],
                "label": "Sr",
                "properties": {}
            },
            {
                "species": [
                    {
                        "element": "Sr",
                        "occu": 1
                    }
                ],
                "abc": [
                    0.23657756,
                    0.23657756,
                    0.26912038
                ],
                "xyz": [
                    1.9545594032766387,
                    0.0,
                    2.9505834705474463
                ],
                "label": "Sr",
                "properties": {}
            },
            {
                "species": [
                    {
                        "element": "Sr",
                        "occu": 1
                    }
                ],
                "abc": [
                    0.95427341,
                    0.95427341,
                    0.26194335
                ],
                "xyz": [
                    11.853892683204736,
                    0.0,
                    2.871494869552805
                ],
                "label": "Sr",
                "properties": {}
            },
            {
                "species": [
                    {
                        "element": "Sr",
                        "occu": 1
                    }
                ],
                "abc": [
                    0.76342244,
                    0.76342244,
                    0.73087962
                ],
                "xyz": [
                    6.970297536723362,
                    0.0,
                    8.013154929452554
                ],
                "label": "Sr",
                "properties": {}
            },
            {
                "species": [
                    {
                        "element": "Ti",
                        "occu": 1
                    }
                ],
                "abc": [
                    0.24780726,
                    0.75219274,
                    0.0
                ],
                "xyz": [
                    6.872506560000001,
                    1.436612291659125,
                    -0.00027696
                ],
                "label": "Ti",
                "properties": {}
            },
            {
                "species": [
                    {
                        "element": "Ti",
                        "occu": 1
                    }
                ],
                "abc": [
                    0.5,
                    0.5,
                    0.5
                ],
                "xyz": [
                    4.46242847,
                    0.0,
                    5.4818692
                ],
                "label": "Ti",
                "properties": {}
            },
            {
                "species": [
                    {
                        "element": "Ti",
                        "occu": 1
                    }
                ],
                "abc": [
                    0.26198935,
                    0.26198935,
                    0.00046197
                ],
                "xyz": [
                    3.5988202854997975,
                    0.0,
                    0.0049200529823184005
                ],
                "label": "Ti",
                "properties": {}
            },
            {
                "species": [
                    {
                        "element": "Ti",
                        "occu": 1
                    }
                ],
                "abc": [
                    0.75219274,
                    0.24780726,
                    0.0
                ],
                "xyz": [
                    6.872506560000001,
                    -1.436612291659125,
                    -0.00027696
                ],
                "label": "Ti",
                "properties": {}
            },
            {
                "species": [
                    {
                        "element": "Ti",
                        "occu": 1
                    }
                ],
                "abc": [
                    0.73801065,
                    0.73801065,
                    0.99953803
                ],
                "xyz": [
                    5.326036654500204,
                    0.0,
                    10.958818347017681
                ],
                "label": "Ti",
                "properties": {}
            },
            {
                "species": [
                    {
                        "element": "Si",
                        "occu": 1
                    }
                ],
                "abc": [
                    0.40686415,
                    0.40686415,
                    0.73206953
                ],
                "xyz": [
                    2.0636636105884527,
                    0.0,
                    8.026398955295042
                ],
                "label": "Si",
                "properties": {}
            },
            {
                "species": [
                    {
                        "element": "Si",
                        "occu": 1
                    }
                ],
                "abc": [
                    0.84247496,
                    0.84247496,
                    0.45476894
                ],
                "xyz": [
                    9.387772061858426,
                    0.0,
                    4.985752932486698
                ],
                "label": "Si",
                "properties": {}
            },
            {
                "species": [
                    {
                        "element": "Si",
                        "occu": 1
                    }
                ],
                "abc": [
                    0.15752504,
                    0.15752504,
                    0.54523106
                ],
                "xyz": [
                    -0.46291512185842576,
                    0.0,
                    5.977985467513302
                ],
                "label": "Si",
                "properties": {}
            },
            {
                "species": [
                    {
                        "element": "Si",
                        "occu": 1
                    }
                ],
                "abc": [
                    0.59313585,
                    0.59313585,
                    0.26793047
                ],
                "xyz": [
                    6.861193329411547,
                    0.0,
                    2.9373394447049583
                ],
                "label": "Si",
                "properties": {}
            },
            {
                "species": [
                    {
                        "element": "O",
                        "occu": 1
                    }
                ],
                "abc": [
                    0.8014259,
                    0.32717947,
                    0.18250424
                ],
                "xyz": [
                    6.876648868664023,
                    -1.350768960703347,
                    2.0007172584561617
                ],
                "label": "O",
                "properties": {}
            },
            {
                "species": [
                    {
                        "element": "O",
                        "occu": 1
                    }
                ],
                "abc": [
                    0.65451907,
                    0.13306659,
                    0.41849086
                ],
                "xyz": [
                    3.3954963098094146,
                    -1.4852232508440448,
                    4.588237992563802
                ],
                "label": "O",
                "properties": {}
            },
            {
                "species": [
                    {
                        "element": "O",
                        "occu": 1
                    }
                ],
                "abc": [
                    0.86693341,
                    0.34548093,
                    0.58150914
                ],
                "xyz": [
                    5.529360630190585,
                    -1.4852232508440446,
                    6.375500407436198
                ],
                "label": "O",
                "properties": {}
            },
            {
                "species": [
                    {
                        "element": "O",
                        "occu": 1
                    }
                ],
                "abc": [
                    0.04228096,
                    0.54241186,
                    0.12086054
                ],
                "xyz": [
                    3.435738562235762,
                    1.4244942149772841,
                    1.3249883539896257
                ],
                "label": "O",
                "properties": {}
            },
            {
                "species": [
                    {
                        "element": "O",
                        "occu": 1
                    }
                ],
                "abc": [
                    0.09731059,
                    0.09731059,
                    0.99862575
                ],
                "xyz": [
                    -3.475996744104694,
                    0.0,
                    10.949170738997228
                ],
                "label": "O",
                "properties": {}
            },
            {
                "species": [
                    {
                        "element": "O",
                        "occu": 1
                    }
                ],
                "abc": [
                    0.59628825,
                    0.59628825,
                    0.99967349
                ],
                "xyz": [
                    3.3774074687461706,
                    0.0,
                    10.960382072927157
                ],
                "label": "O",
                "properties": {}
            },
            {
                "species": [
                    {
                        "element": "O",
                        "occu": 1
                    }
                ],
                "abc": [
                    0.85367819,
                    0.85367819,
                    0.59182807
                ],
                "xyz": [
                    8.88111419269988,
                    0.0,
                    6.488503093238418
                ],
                "label": "O",
                "properties": {}
            },
            {
                "species": [
                    {
                        "element": "O",
                        "occu": 1
                    }
                ],
                "abc": [
                    0.14632181,
                    0.14632181,
                    0.40817193
                ],
                "xyz": [
                    0.04374274730011973,
                    0.0,
                    4.475235306761583
                ],
                "label": "O",
                "properties": {}
            },
            {
                "species": [
                    {
                        "element": "O",
                        "occu": 1
                    }
                ],
                "abc": [
                    0.67282053,
                    0.1985741,
                    0.81749576
                ],
                "xyz": [
                    2.0482080713359756,
                    -1.3507689607033468,
                    8.96302114154384
                ],
                "label": "O",
                "properties": {}
            },
            {
                "species": [
                    {
                        "element": "O",
                        "occu": 1
                    }
                ],
                "abc": [
                    0.52657461,
                    0.52657461,
                    0.35295043
                ],
                "xyz": [
                    5.536498726710726,
                    0.0,
                    3.8695600087817263
                ],
                "label": "O",
                "properties": {}
            },
            {
                "species": [
                    {
                        "element": "O",
                        "occu": 1
                    }
                ],
                "abc": [
                    0.1985741,
                    0.67282053,
                    0.81749576
                ],
                "xyz": [
                    2.0482080713359756,
                    1.3507689607033468,
                    8.96302114154384
                ],
                "label": "O",
                "properties": {}
            },
            {
                "species": [
                    {
                        "element": "O",
                        "occu": 1
                    }
                ],
                "abc": [
                    0.72128474,
                    0.72128474,
                    0.34563662
                ],
                "xyz": [
                    8.248045724628478,
                    0.0,
                    3.789261404133578
                ],
                "label": "O",
                "properties": {}
            },
            {
                "species": [
                    {
                        "element": "O",
                        "occu": 1
                    }
                ],
                "abc": [
                    0.95771904,
                    0.45758814,
                    0.87913946
                ],
                "xyz": [
                    5.489118377764238,
                    -1.4244942149772843,
                    9.638750046010374
                ],
                "label": "O",
                "properties": {}
            },
            {
                "species": [
                    {
                        "element": "O",
                        "occu": 1
                    }
                ],
                "abc": [
                    0.40371175,
                    0.40371175,
                    0.00032651
                ],
                "xyz": [
                    5.547449471253828,
                    0.0,
                    0.0033563270728432003
                ],
                "label": "O",
                "properties": {}
            },
            {
                "species": [
                    {
                        "element": "O",
                        "occu": 1
                    }
                ],
                "abc": [
                    0.45758814,
                    0.95771904,
                    0.87913946
                ],
                "xyz": [
                    5.489118377764238,
                    1.4244942149772843,
                    9.638750046010374
                ],
                "label": "O",
                "properties": {}
            },
            {
                "species": [
                    {
                        "element": "O",
                        "occu": 1
                    }
                ],
                "abc": [
                    0.47342539,
                    0.47342539,
                    0.64704957
                ],
                "xyz": [
                    3.3883582132892744,
                    0.0,
                    7.094178391218273
                ],
                "label": "O",
                "properties": {}
            },
            {
                "species": [
                    {
                        "element": "O",
                        "occu": 1
                    }
                ],
                "abc": [
                    0.90268941,
                    0.90268941,
                    0.00137425
                ],
                "xyz": [
                    12.400853684104694,
                    0.0,
                    0.014567661002772802
                ],
                "label": "O",
                "properties": {}
            },
            {
                "species": [
                    {
                        "element": "O",
                        "occu": 1
                    }
                ],
                "abc": [
                    0.54241186,
                    0.04228096,
                    0.12086054
                ],
                "xyz": [
                    3.435738562235762,
                    -1.4244942149772841,
                    1.3249883539896257
                ],
                "label": "O",
                "properties": {}
            },
            {
                "species": [
                    {
                        "element": "O",
                        "occu": 1
                    }
                ],
                "abc": [
                    0.34548093,
                    0.86693341,
                    0.58150914
                ],
                "xyz": [
                    5.529360630190585,
                    1.4852232508440446,
                    6.375500407436198
                ],
                "label": "O",
                "properties": {}
            },
            {
                "species": [
                    {
                        "element": "O",
                        "occu": 1
                    }
                ],
                "abc": [
                    0.27871526,
                    0.27871526,
                    0.65436338
                ],
                "xyz": [
                    0.6768112153715227,
                    0.0,
                    7.1744769958664225
                ],
                "label": "O",
                "properties": {}
            },
            {
                "species": [
                    {
                        "element": "O",
                        "occu": 1
                    }
                ],
                "abc": [
                    0.13306659,
                    0.65451907,
                    0.41849086
                ],
                "xyz": [
                    3.3954963098094146,
                    1.4852232508440448,
                    4.588237992563802
                ],
                "label": "O",
                "properties": {}
            },
            {
                "species": [
                    {
                        "element": "O",
                        "occu": 1
                    }
                ],
                "abc": [
                    0.32717947,
                    0.8014259,
                    0.18250424
                ],
                "xyz": [
                    6.876648868664023,
                    1.350768960703347,
                    2.0007172584561617
                ],
                "label": "O",
                "properties": {}
            }
        ]
    },
    "spacegroup": {
        "source": "spglib",
        "symbol": "C2/m",
        "number": 12,
        "point_group": "2/m",
        "crystal_system": "monoclinic",
        "hall": "-C 2y"
    },
    "dielectric": {
        "epsilon_ionic": [
            [
                10.72307513,
                1e-08,
                0.405837
            ],
            [
                1e-08,
                21.30837192,
                1e-08
            ],
            [
                0.405837,
                1e-08,
                8.86436047
            ]
        ],
        "epsilon_ionic_avg": 13.631935840000002,
        "epsilon_ionic_eig": [
            10.80782268480912,
            8.779612915190876,
            21.308371920000006
        ],
        "epsilon_electronic": [
            [
                4.25292068,
                0.0,
                -0.08566391
            ],
            [
                0.0,
                4.93227727,
                0.0
            ],
            [
                -0.08566348,
                0.0,
                4.00705887
            ]
        ],
        "epsilon_electronic_avg": 4.3974189400000006,
        "epsilon_electronic_eig": [
            4.279823936809401,
            3.9801556131905986,
            4.93227727
        ]
    },
    "phonon": {
        "lowest_freq": -0.05006960005042897,
        "frequency": [
            -0.05006960005042897,
            -0.04185849622765529,
            -0.027851781238171065,
            2.0389959522097083,
            2.4795386050215944,
            2.608372175981837,
            2.894890280527546,
            3.009948222330608,
            3.05685331623419,
            3.245170902148233,
            3.2657288768981236,
            3.790828088961054,
            3.914186445212349,
            4.065195671821576,
            4.080584576523909,
            4.175896451054864,
            4.290557105089257,
            4.395882819267506,
            4.724836608377433,
            4.76559174850845,
            4.928872537066435,
            4.933526112075157,
            5.372630212911265,
            5.497256890190648,
            5.614513618024562,
            5.701981860831763,
            5.817674847421527,
            5.84807403036407,
            6.279719614666502,
            6.41290801897851,
            6.4633071115988,
            6.720670471539823,
            6.77709947282787,
            6.812286032554016,
            7.179401669182277,
            7.5125299313950435,
            7.6559433305818745,
            7.8234892199908135,
            7.985524373514261,
            8.398440489370405,
            8.501226206564011,
            8.549678448797085,
            8.825191921470168,
            8.852141114970726,
            8.98697860809851,
            9.09135270722036,
            9.09987078886331,
            9.313380583336832,
            9.943164383246911,
            9.97871790564028,
            10.083217001676035,
            10.201014867756081,
            10.445665857647308,
            10.549072718615964,
            10.613475819501767,
            11.399497644258432,
            11.422873330468589,
            11.461797641335817,
            11.641298135660792,
            11.96709471540057,
            12.452437457355602,
            12.76471877187884,
            13.147115871513074,
            13.233247775721352,
            13.312821263080634,
            13.978596224850255,
            14.257448499776407,
            14.371557266770697,
            14.461440814195438,
            14.569378202527552,
            14.850738064900524,
            14.890568548127883,
            15.22928472169789,
            15.237106019224143,
            15.37559036070977,
            15.509887362414817,
            15.828070155211153,
            15.830951247835186,
            16.385292762922738,
            16.589855310218603,
            17.13675359490754,
            18.458001668168745,
            18.616176260110954,
            18.667359269743404,
            19.00308106498343,
            19.32961872374192,
            19.359714569677156,
            19.392868028794652,
            20.19801884808308,
            20.6122456996277,
            22.65137153041804,
            23.174661930396322,
            23.456898264463558,
            23.62088642546755,
            24.351705683453613,
            25.612957916506538,
            25.814946910553317,
            26.69298072719513,
            27.323153113554184,
            28.314169582035223,
            30.01531568207056,
            31.146238285563992,
            31.272747909376857,
            32.67995849081074,
            33.00621476475481
        ]
    },
    "born_effective_charge": {
        "avg_abs_trace": 2.9873537142857147,
        "tensors": [
            [
                [
                    2.4166,
                    0.0,
                    -0.05607
                ],
                [
                    7e-05,
                    2.43354,
                    7e-05
                ],
                [
                    0.10723,
                    0.0,
                    2.91401
                ]
            ],
            [
                [
                    2.7682,
                    0.0,
                    0.08428
                ],
                [
                    9e-05,
                    2.29158,
                    2e-05
                ],
                [
                    -0.0975,
                    0.0,
                    2.89872
                ]
            ],
            [
                [
                    2.41655,
                    0.0,
                    -0.05633
                ],
                [
                    -7e-05,
                    2.43354,
                    -7e-05
                ],
                [
                    0.10648,
                    0.0,
                    2.91372
                ]
            ],
            [
                [
                    2.76816,
                    0.0,
                    0.08445
                ],
                [
                    -9e-05,
                    2.29158,
                    -2e-05
                ],
                [
                    -0.09785,
                    0.0,
                    2.89833
                ]
            ],
            [
                [
                    4.41205,
                    -1e-05,
                    -0.21289
                ],
                [
                    0.0,
                    6.99647,
                    -0.0
                ],
                [
                    -0.01204,
                    4e-05,
                    4.46313
                ]
            ],
            [
                [
                    4.77018,
                    0.0,
                    -0.57205
                ],
                [
                    0.0,
                    5.79166,
                    -0.0
                ],
                [
                    -0.72725,
                    0.0,
                    5.97529
                ]
            ],
            [
                [
                    5.95275,
                    0.0,
                    0.03693
                ],
                [
                    0.00014,
                    7.44978,
                    1e-05
                ],
                [
                    0.00211,
                    0.0,
                    2.64221
                ]
            ],
            [
                [
                    4.41205,
                    1e-05,
                    -0.21289
                ],
                [
                    0.0,
                    6.99635,
                    -0.0
                ],
                [
                    -0.01204,
                    -4e-05,
                    4.46313
                ]
            ],
            [
                [
                    5.95272,
                    0.0,
                    0.03694
                ],
                [
                    -0.00014,
                    7.44978,
                    -1e-05
                ],
                [
                    0.0023,
                    0.0,
                    2.64227
                ]
            ],
            [
                [
                    3.85808,
                    0.0,
                    -0.21114
                ],
                [
                    -2e-05,
                    3.24969,
                    -0.0001
                ],
                [
                    -0.56476,
                    0.0,
                    4.54775
                ]
            ],
            [
                [
                    3.43879,
                    0.0,
                    0.12701
                ],
                [
                    6e-05,
                    4.01787,
                    -1e-05
                ],
                [
                    0.41248,
                    0.0,
                    3.3988
                ]
            ],
            [
                [
                    3.4388,
                    0.0,
                    0.12687
                ],
                [
                    -6e-05,
                    4.01787,
                    1e-05
                ],
                [
                    0.41262,
                    0.0,
                    3.39863
                ]
            ],
            [
                [
                    3.85806,
                    0.0,
                    -0.2111
                ],
                [
                    2e-05,
                    3.24969,
                    0.0001
                ],
                [
                    -0.56484,
                    0.0,
                    4.54771
                ]
            ],
            [
                [
                    -1.42422,
                    0.02909,
                    0.14467
                ],
                [
                    -0.01082,
                    -1.97001,
                    -0.37185
                ],
                [
                    0.11728,
                    -0.53884,
                    -3.13897
                ]
            ],
            [
                [
                    -1.97102,
                    -0.86211,
                    -0.26877
                ],
                [
                    -0.96061,
                    -3.10643,
                    -0.31126
                ],
                [
                    -0.27398,
                    -0.26125,
                    -1.76026
                ]
            ],
            [
                [
                    -1.97094,
                    0.86203,
                    -0.2688
                ],
                [
                    0.96061,
                    -3.10643,
                    0.31126
                ],
                [
                    -0.27399,
                    0.26141,
                    -1.76027
                ]
            ],
            [
                [
                    -1.60557,
                    0.03527,
                    -0.01821
                ],
                [
                    0.11619,
                    -4.01946,
                    0.00791
                ],
                [
                    -0.01536,
                    -0.00347,
                    -2.04084
                ]
            ],
            [
                [
                    -3.40331,
                    0.0,
                    0.04712
                ],
                [
                    7e-05,
                    -3.51649,
                    -0.0
                ],
                [
                    0.01605,
                    0.0,
                    -1.01933
                ]
            ],
            [
                [
                    -4.71489,
                    0.0,
                    0.02911
                ],
                [
                    0.00014,
                    -3.30817,
                    0.0
                ],
                [
                    0.00581,
                    0.0,
                    -0.76673
                ]
            ],
            [
                [
                    -1.8651,
                    0.0,
                    0.33985
                ],
                [
                    4e-05,
                    -1.46683,
                    -1e-05
                ],
                [
                    0.28301,
                    0.0,
                    -2.46569
                ]
            ],
            [
                [
                    -1.86536,
                    0.0,
                    0.3405
                ],
                [
                    -4e-05,
                    -1.46683,
                    1e-05
                ],
                [
                    0.28247,
                    0.0,
                    -2.46464
                ]
            ],
            [
                [
                    -1.4243,
                    -0.02919,
                    0.14478
                ],
                [
                    0.01082,
                    -1.97001,
                    0.37185
                ],
                [
                    0.11722,
                    0.53875,
                    -3.13894
                ]
            ],
            [
                [
                    -2.45092,
                    0.0,
                    1.59949
                ],
                [
                    6e-05,
                    -1.34095,
                    2e-05
                ],
                [
                    1.69918,
                    0.0,
                    -3.36498
                ]
            ],
            [
                [
                    -1.4243,
                    0.02919,
                    0.14478
                ],
                [
                    -0.01082,
                    -1.97001,
                    -0.37157
                ],
                [
                    0.11722,
                    -0.53875,
                    -3.13894
                ]
            ],
            [
                [
                    -2.79507,
                    0.0,
                    -1.21335
                ],
                [
                    -7e-05,
                    -1.51049,
                    3e-05
                ],
                [
                    -1.14272,
                    0.0,
                    -2.35528
                ]
            ],
            [
                [
                    -1.6056,
                    0.03523,
                    -0.0184
                ],
                [
                    0.11619,
                    -4.01947,
                    0.00782
                ],
                [
                    -0.01537,
                    -0.00343,
                    -2.04094
                ]
            ],
            [
                [
                    -4.71486,
                    0.0,
                    0.02914
                ],
                [
                    -0.00014,
                    -3.30817,
                    -0.0
                ],
                [
                    0.00587,
                    0.0,
                    -0.76674
                ]
            ],
            [
                [
                    -1.6056,
                    -0.03523,
                    -0.0184
                ],
                [
                    -0.11619,
                    -4.01946,
                    -0.00791
                ],
                [
                    -0.01537,
                    0.00343,
                    -2.04094
                ]
            ],
            [
                [
                    -2.45143,
                    0.0,
                    1.59974
                ],
                [
                    -6e-05,
                    -1.34095,
                    -2e-05
                ],
                [
                    1.69898,
                    0.0,
                    -3.36522
                ]
            ],
            [
                [
                    -3.40365,
                    0.0,
                    0.04715
                ],
                [
                    -7e-05,
                    -3.51649,
                    0.0
                ],
                [
                    0.01561,
                    0.0,
                    -1.01936
                ]
            ],
            [
                [
                    -1.60557,
                    -0.03527,
                    -0.01821
                ],
                [
                    -0.11619,
                    -4.01947,
                    -0.00782
                ],
                [
                    -0.01536,
                    0.00347,
                    -2.04084
                ]
            ],
            [
                [
                    -1.97094,
                    -0.86203,
                    -0.2688
                ],
                [
                    -0.96076,
                    -3.1064,
                    -0.31126
                ],
                [
                    -0.27399,
                    -0.26141,
                    -1.76027
                ]
            ],
            [
                [
                    -2.79507,
                    0.0,
                    -1.21328
                ],
                [
                    7e-05,
                    -1.51049,
                    -3e-05
                ],
                [
                    -1.1428,
                    0.0,
                    -2.35526
                ]
            ],
            [
                [
                    -1.97102,
                    0.86211,
                    -0.26877
                ],
                [
                    0.96076,
                    -3.1064,
                    0.31126
                ],
                [
                    -0.27398,
                    0.26125,
                    -1.76026
                ]
            ],
            [
                [
                    -1.42422,
                    -0.02909,
                    0.14467
                ],
                [
                    0.01082,
                    -1.97001,
                    0.37157
                ],
                [
                    0.11728,
                    0.53884,
                    -3.13897
                ]
            ]
        ]
    },
    "band_gap": 2.0761000000000003,
    "is_direct": false,
    "formula": "Sr4Ti5(Si2O11)2"
}