{
    "mp_id": "mp-559151",
    "nelements": 4,
    "nsites": 22,
    "elements": [
        "Ba",
        "O",
        "Sr",
        "Ta"
    ],
    "structure": {
        "@module": "pymatgen.core.structure",
        "@class": "Structure",
        "charge": null,
        "lattice": {
            "matrix": [
                [
                    -2.00617852,
                    3.9240736,
                    10.10466281
                ],
                [
                    2.00617852,
                    -3.9240736,
                    10.10466281
                ],
                [
                    2.00617852,
                    3.9240736,
                    -10.10466281
                ]
            ],
            "a": 11.023942868870623,
            "b": 11.023942868870623,
            "c": 11.023942868870623,
            "alpha": 159.0293413944366,
            "beta": 138.29551719823496,
            "gamma": 47.129003922886014,
            "volume": 318.19147343133545
        },
        "sites": [
            {
                "species": [
                    {
                        "element": "Ba",
                        "occu": 1
                    }
                ],
                "abc": [
                    0.23891158,
                    0.73891158,
                    0.5
                ],
                "xyz": [
                    2.0061785199999997,
                    0.0,
                    4.828241914608681
                ],
                "label": "Ba",
                "properties": {}
            },
            {
                "species": [
                    {
                        "element": "Ba",
                        "occu": 1
                    }
                ],
                "abc": [
                    0.76108842,
                    0.26108842,
                    0.5
                ],
                "xyz": [
                    -2.220446049250313e-16,
                    3.9240736,
                    5.27642089539132
                ],
                "label": "Ba",
                "properties": {}
            },
            {
                "species": [
                    {
                        "element": "Sr",
                        "occu": 1
                    }
                ],
                "abc": [
                    0.5,
                    0.5,
                    0.0
                ],
                "xyz": [
                    0.0,
                    0.0,
                    10.10466281
                ],
                "label": "Sr",
                "properties": {}
            },
            {
                "species": [
                    {
                        "element": "Sr",
                        "occu": 1
                    }
                ],
                "abc": [
                    0.0,
                    0.5,
                    0.5
                ],
                "xyz": [
                    2.00617852,
                    0.0,
                    0.0
                ],
                "label": "Sr",
                "properties": {}
            },
            {
                "species": [
                    {
                        "element": "Ta",
                        "occu": 1
                    }
                ],
                "abc": [
                    0.85458408,
                    0.10250726,
                    0.75207683
                ],
                "xyz": [
                    2.0061785344083205e-08,
                    5.902409628308639,
                    2.0716024947073723
                ],
                "label": "Ta",
                "properties": {}
            },
            {
                "species": [
                    {
                        "element": "Ta",
                        "occu": 1
                    }
                ],
                "abc": [
                    0.35043043,
                    0.10250726,
                    0.24792317
                ],
                "xyz": [
                    0.0,
                    1.9457375324506239,
                    2.0716025957540016
                ],
                "label": "Ta",
                "properties": {}
            },
            {
                "species": [
                    {
                        "element": "Ta",
                        "occu": 1
                    }
                ],
                "abc": [
                    0.14541592,
                    0.89749274,
                    0.24792317
                ],
                "xyz": [
                    2.006178499938215,
                    -1.9783360283086397,
                    8.033060315292628
                ],
                "label": "Ta",
                "properties": {}
            },
            {
                "species": [
                    {
                        "element": "Ta",
                        "occu": 1
                    }
                ],
                "abc": [
                    0.64956957,
                    0.89749274,
                    0.75207683
                ],
                "xyz": [
                    2.00617852,
                    1.9783360675493764,
                    8.033060214246
                ],
                "label": "Ta",
                "properties": {}
            },
            {
                "species": [
                    {
                        "element": "O",
                        "occu": 1
                    }
                ],
                "abc": [
                    0.92224301,
                    0.92224301,
                    0.0
                ],
                "xyz": [
                    0.0,
                    0.0,
                    18.637909289858918
                ],
                "label": "O",
                "properties": {}
            },
            {
                "species": [
                    {
                        "element": "O",
                        "occu": 1
                    }
                ],
                "abc": [
                    0.15478968,
                    0.40835247,
                    0.7464372
                ],
                "xyz": [
                    2.006178499938215,
                    1.934075460396576,
                    -1.852134674992091
                ],
                "label": "O",
                "properties": {}
            },
            {
                "species": [
                    {
                        "element": "O",
                        "occu": 1
                    }
                ],
                "abc": [
                    0.33808473,
                    0.59164753,
                    0.7464372
                ],
                "xyz": [
                    2.00617852,
                    1.9340754211558397,
                    1.852134776038719
                ],
                "label": "O",
                "properties": {}
            },
            {
                "species": [
                    {
                        "element": "O",
                        "occu": 1
                    }
                ],
                "abc": [
                    0.00710084,
                    0.80658429,
                    0.20051656
                ],
                "xyz": [
                    2.0061785400617853,
                    -2.350390160323104,
                    6.195861645539882
                ],
                "label": "O",
                "properties": {}
            },
            {
                "species": [
                    {
                        "element": "O",
                        "occu": 1
                    }
                ],
                "abc": [
                    0.70793958,
                    0.0,
                    0.70793958
                ],
                "xyz": [
                    0.0,
                    5.556014032546176,
                    0.0
                ],
                "label": "O",
                "properties": {}
            },
            {
                "species": [
                    {
                        "element": "O",
                        "occu": 1
                    }
                ],
                "abc": [
                    0.66191527,
                    0.40835247,
                    0.2535628
                ],
                "xyz": [
                    1.1102230246251565e-16,
                    1.9899981788441594,
                    8.252528033961282
                ],
                "label": "O",
                "properties": {}
            },
            {
                "species": [
                    {
                        "element": "O",
                        "occu": 1
                    }
                ],
                "abc": [
                    0.39393227,
                    0.19341571,
                    0.20051656
                ],
                "xyz": [
                    1.1102230246251565e-16,
                    1.5736834789176317,
                    3.90880106341349
                ],
                "label": "O",
                "properties": {}
            },
            {
                "species": [
                    {
                        "element": "O",
                        "occu": 1
                    }
                ],
                "abc": [
                    0.29206042,
                    0.0,
                    0.29206042
                ],
                "xyz": [
                    0.0,
                    2.292133167453824,
                    0.0
                ],
                "label": "O",
                "properties": {}
            },
            {
                "species": [
                    {
                        "element": "O",
                        "occu": 1
                    }
                ],
                "abc": [
                    0.99289916,
                    0.19341571,
                    0.79948344
                ],
                "xyz": [
                    -2.00617851220386e-08,
                    6.274463760323104,
                    3.908801164460119
                ],
                "label": "O",
                "properties": {}
            },
            {
                "species": [
                    {
                        "element": "O",
                        "occu": 1
                    }
                ],
                "abc": [
                    0.38521139,
                    0.88521139,
                    0.5
                ],
                "xyz": [
                    2.0061785200000006,
                    0.0,
                    7.784862413042813
                ],
                "label": "O",
                "properties": {}
            },
            {
                "species": [
                    {
                        "element": "O",
                        "occu": 1
                    }
                ],
                "abc": [
                    0.07775699,
                    0.07775699,
                    0.0
                ],
                "xyz": [
                    0.0,
                    0.0,
                    1.571416330141084
                ],
                "label": "O",
                "properties": {}
            },
            {
                "species": [
                    {
                        "element": "O",
                        "occu": 1
                    }
                ],
                "abc": [
                    0.84521032,
                    0.59164753,
                    0.2535628
                ],
                "xyz": [
                    2.0061785233060903e-08,
                    1.9899981396034234,
                    11.95679748499209
                ],
                "label": "O",
                "properties": {}
            },
            {
                "species": [
                    {
                        "element": "O",
                        "occu": 1
                    }
                ],
                "abc": [
                    0.60606773,
                    0.80658429,
                    0.79948344
                ],
                "xyz": [
                    2.00617852,
                    2.350390121082368,
                    6.195861746586511
                ],
                "label": "O",
                "properties": {}
            },
            {
                "species": [
                    {
                        "element": "O",
                        "occu": 1
                    }
                ],
                "abc": [
                    0.61478861,
                    0.11478861,
                    0.5
                ],
                "xyz": [
                    2.220446049250313e-16,
                    3.9240736,
                    2.319800396957188
                ],
                "label": "O",
                "properties": {}
            }
        ]
    },
    "spacegroup": {
        "source": "spglib",
        "symbol": "Immm",
        "number": 71,
        "point_group": "mmm",
        "crystal_system": "orthorhombic",
        "hall": "-I 2 2"
    },
    "dielectric": {
        "epsilon_ionic": [
            [
                21.42891722,
                -1e-08,
                -0.0
            ],
            [
                -1e-08,
                22.22141951,
                -0.0
            ],
            [
                -0.0,
                -0.0,
                14.69903609
            ]
        ],
        "epsilon_ionic_avg": 19.44979094,
        "epsilon_ionic_eig": [
            21.42891722,
            22.22141951,
            14.69903609
        ],
        "epsilon_electronic": [
            [
                4.48666819,
                0.0,
                0.0
            ],
            [
                0.0,
                4.58348601,
                0.0
            ],
            [
                0.0,
                0.0,
                4.33078035
            ]
        ],
        "epsilon_electronic_avg": 4.466978183333333,
        "epsilon_electronic_eig": [
            4.48666819,
            4.58348601,
            4.33078035
        ]
    },
    "phonon": {
        "lowest_freq": -0.03487796382186388,
        "frequency": [
            -0.03487796382186388,
            -0.03056933282718952,
            -0.024785468741882474,
            2.215887922368492,
            2.3560736172257952,
            2.4201168544415683,
            2.482575475270745,
            2.4953305357484448,
            2.7106931580577545,
            2.780237306095079,
            2.8221738621605317,
            2.877540555050156,
            2.877727411590029,
            3.177561883835649,
            3.187976001141255,
            3.5849209131001847,
            4.022241216485075,
            4.123066122032058,
            4.173184458448584,
            4.315169143091286,
            4.883419713297084,
            5.521759702045725,
            5.7042455274592445,
            6.2183719547907526,
            6.4919024265967735,
            6.581649848920131,
            6.806159808472561,
            7.0883298339684275,
            7.235134474704372,
            7.493998584985605,
            7.530198788971682,
            7.566843714820818,
            7.953218598825377,
            8.07675872528136,
            8.495878611673648,
            8.623400393129097,
            8.781815921510784,
            8.892906341862847,
            9.131283052428088,
            9.21357374528122,
            9.463465000594708,
            9.49876918308196,
            9.828552131464349,
            9.937412455361745,
            10.14661336888995,
            10.158209807754218,
            10.403555748795926,
            11.109296693639534,
            11.99061798477534,
            12.611867753531136,
            12.938756507232792,
            14.070237876284164,
            15.74552565171513,
            16.723024699004995,
            16.787874762939307,
            17.251882278567297,
            17.273302870708548,
            17.694811344265254,
            17.792413822066674,
            18.05091611332023,
            18.626880619091725,
            19.628336403860644,
            22.024309045611535,
            23.086656775958353,
            24.889693458757304,
            24.9431081923296
        ]
    },
    "born_effective_charge": {
        "avg_abs_trace": 3.4823284848484857,
        "tensors": [
            [
                [
                    2.46927,
                    0.0,
                    -7e-05
                ],
                [
                    -0.0,
                    2.92344,
                    -4e-05
                ],
                [
                    -0.0,
                    -0.0,
                    3.04277
                ]
            ],
            [
                [
                    2.46927,
                    -0.0,
                    7e-05
                ],
                [
                    -0.0,
                    2.92344,
                    4e-05
                ],
                [
                    0.0,
                    0.0,
                    3.04278
                ]
            ],
            [
                [
                    2.57551,
                    -0.0,
                    -0.0
                ],
                [
                    -0.0,
                    2.79933,
                    -0.0
                ],
                [
                    -0.0,
                    0.0,
                    2.00164
                ]
            ],
            [
                [
                    2.59645,
                    -0.0,
                    -0.0
                ],
                [
                    -0.0,
                    2.33109,
                    -0.0
                ],
                [
                    -0.0,
                    0.0,
                    2.28544
                ]
            ],
            [
                [
                    7.28636,
                    -4e-05,
                    0.00027
                ],
                [
                    -0.0,
                    7.35006,
                    -0.31385
                ],
                [
                    -0.0,
                    0.31246,
                    6.22767
                ]
            ],
            [
                [
                    7.28636,
                    4e-05,
                    0.00027
                ],
                [
                    0.0,
                    7.35007,
                    0.31405
                ],
                [
                    -0.0,
                    -0.31246,
                    6.22767
                ]
            ],
            [
                [
                    7.28636,
                    4e-05,
                    -0.00027
                ],
                [
                    -0.0,
                    7.35007,
                    -0.31405
                ],
                [
                    0.0,
                    0.31246,
                    6.22769
                ]
            ],
            [
                [
                    7.28636,
                    -4e-05,
                    -0.00027
                ],
                [
                    -0.0,
                    7.35006,
                    0.31385
                ],
                [
                    0.0,
                    -0.31246,
                    6.22769
                ]
            ],
            [
                [
                    -1.82242,
                    0.0,
                    -6e-05
                ],
                [
                    -0.0,
                    -5.21779,
                    0.00011
                ],
                [
                    -0.0,
                    0.0,
                    -1.51055
                ]
            ],
            [
                [
                    -5.54636,
                    -6e-05,
                    0.00045
                ],
                [
                    -0.0,
                    -1.63717,
                    0.01865
                ],
                [
                    0.0,
                    -0.05277,
                    -1.37654
                ]
            ],
            [
                [
                    -5.54636,
                    -6e-05,
                    -0.00045
                ],
                [
                    0.0,
                    -1.63717,
                    -0.01865
                ],
                [
                    -0.0,
                    0.0528,
                    -1.3765
                ]
            ],
            [
                [
                    -1.61444,
                    -2e-05,
                    5e-05
                ],
                [
                    -0.0,
                    -1.94528,
                    -0.45537
                ],
                [
                    -0.0,
                    -0.28587,
                    -3.7432
                ]
            ],
            [
                [
                    -2.09257,
                    -4e-05,
                    -0.0
                ],
                [
                    0.0,
                    -2.00983,
                    -0.0
                ],
                [
                    -0.0,
                    -0.0,
                    -4.33791
                ]
            ],
            [
                [
                    -5.54636,
                    6e-05,
                    0.00045
                ],
                [
                    0.0,
                    -1.63713,
                    -0.01869
                ],
                [
                    0.0,
                    0.05277,
                    -1.37654
                ]
            ],
            [
                [
                    -1.61444,
                    -2e-05,
                    -5e-05
                ],
                [
                    0.0,
                    -1.94528,
                    0.45537
                ],
                [
                    0.0,
                    0.28583,
                    -3.74344
                ]
            ],
            [
                [
                    -2.09257,
                    4e-05,
                    -0.0
                ],
                [
                    -0.0,
                    -2.00981,
                    -0.0
                ],
                [
                    0.0,
                    0.0,
                    -4.33791
                ]
            ],
            [
                [
                    -1.61444,
                    2e-05,
                    -5e-05
                ],
                [
                    -0.0,
                    -1.94528,
                    -0.45544
                ],
                [
                    0.0,
                    -0.28583,
                    -3.74344
                ]
            ],
            [
                [
                    -1.39137,
                    0.0,
                    -4e-05
                ],
                [
                    0.0,
                    -5.7963,
                    0.00012
                ],
                [
                    -0.0,
                    -0.0,
                    -1.5536
                ]
            ],
            [
                [
                    -1.82242,
                    -0.0,
                    6e-05
                ],
                [
                    0.0,
                    -5.21779,
                    -0.00011
                ],
                [
                    -0.0,
                    0.0,
                    -1.51044
                ]
            ],
            [
                [
                    -5.54636,
                    6e-05,
                    -0.00045
                ],
                [
                    0.0,
                    -1.63713,
                    0.01869
                ],
                [
                    -0.0,
                    -0.0528,
                    -1.3765
                ]
            ],
            [
                [
                    -1.61444,
                    2e-05,
                    5e-05
                ],
                [
                    -0.0,
                    -1.94528,
                    0.45544
                ],
                [
                    -0.0,
                    0.28587,
                    -3.7432
                ]
            ],
            [
                [
                    -1.39137,
                    0.0,
                    4e-05
                ],
                [
                    0.0,
                    -5.7963,
                    -0.00012
                ],
                [
                    0.0,
                    -0.0,
                    -1.5536
                ]
            ]
        ]
    },
    "band_gap": 2.6527999999999996,
    "is_direct": false,
    "formula": "BaSrTa2O7"
}