{
    "mp_id": "mp-556655",
    "nelements": 4,
    "nsites": 32,
    "elements": [
        "Al",
        "B",
        "Li",
        "O"
    ],
    "structure": {
        "@module": "pymatgen.core.structure",
        "@class": "Structure",
        "charge": null,
        "lattice": {
            "matrix": [
                [
                    6.29072091,
                    0.0,
                    -0.00211223
                ],
                [
                    0.0,
                    5.07174506,
                    0.0
                ],
                [
                    -1.01738961,
                    0.0,
                    10.24733117
                ]
            ],
            "a": 6.2907212646108235,
            "b": 5.07174506,
            "c": 10.297712256913647,
            "alpha": 90.0,
            "beta": 95.68917528294978,
            "gamma": 90.0,
            "volume": 326.92951234295424
        },
        "sites": [
            {
                "species": [
                    {
                        "element": "Li",
                        "occu": 1
                    }
                ],
                "abc": [
                    0.22615155,
                    0.67124708,
                    0.07241814
                ],
                "xyz": [
                    1.3489788212023852,
                    3.4043940620294246,
                    0.7416149792069674
                ],
                "label": "Li",
                "properties": {}
            },
            {
                "species": [
                    {
                        "element": "Li",
                        "occu": 1
                    }
                ],
                "abc": [
                    0.77384845,
                    0.17124708,
                    0.42758186
                ],
                "xyz": [
                    4.433047283797616,
                    0.8685215320294247,
                    4.379938375793032
                ],
                "label": "Li",
                "properties": {}
            },
            {
                "species": [
                    {
                        "element": "Li",
                        "occu": 1
                    }
                ],
                "abc": [
                    0.22615155,
                    0.82875292,
                    0.57241814
                ],
                "xyz": [
                    0.8402840162023851,
                    4.203223527970575,
                    5.8652805642069685
                ],
                "label": "Li",
                "properties": {}
            },
            {
                "species": [
                    {
                        "element": "Li",
                        "occu": 1
                    }
                ],
                "abc": [
                    0.10517083,
                    0.63740904,
                    0.78897747
                ],
                "xyz": [
                    -0.14109714109903126,
                    3.232776149819342,
                    8.084691275776489
                ],
                "label": "Li",
                "properties": {}
            },
            {
                "species": [
                    {
                        "element": "Li",
                        "occu": 1
                    }
                ],
                "abc": [
                    0.89482917,
                    0.13740904,
                    0.71102253
                ],
                "xyz": [
                    4.905733636099031,
                    0.6969036198193423,
                    7.284193249223512
                ],
                "label": "Li",
                "properties": {}
            },
            {
                "species": [
                    {
                        "element": "Li",
                        "occu": 1
                    }
                ],
                "abc": [
                    0.89482917,
                    0.36259096,
                    0.21102253
                ],
                "xyz": [
                    5.414428441099031,
                    1.8389689101806574,
                    2.160527664223511
                ],
                "label": "Li",
                "properties": {}
            },
            {
                "species": [
                    {
                        "element": "Li",
                        "occu": 1
                    }
                ],
                "abc": [
                    0.10517083,
                    0.86259096,
                    0.28897747
                ],
                "xyz": [
                    0.3675976639009687,
                    4.374841440180657,
                    2.961025690776489
                ],
                "label": "Li",
                "properties": {}
            },
            {
                "species": [
                    {
                        "element": "Li",
                        "occu": 1
                    }
                ],
                "abc": [
                    0.77384845,
                    0.32875292,
                    0.92758186
                ],
                "xyz": [
                    3.9243524787976156,
                    1.6673509979705752,
                    9.503603960793034
                ],
                "label": "Li",
                "properties": {}
            },
            {
                "species": [
                    {
                        "element": "Al",
                        "occu": 1
                    }
                ],
                "abc": [
                    0.4979404,
                    0.14779543,
                    0.15781114
                ],
                "xyz": [
                    2.9718486720355086,
                    0.7495807419930758,
                    1.616091249244142
                ],
                "label": "Al",
                "properties": {}
            },
            {
                "species": [
                    {
                        "element": "Al",
                        "occu": 1
                    }
                ],
                "abc": [
                    0.4979404,
                    0.35220457,
                    0.65781114
                ],
                "xyz": [
                    2.4631538670355084,
                    1.786291788006924,
                    6.739756834244142
                ],
                "label": "Al",
                "properties": {}
            },
            {
                "species": [
                    {
                        "element": "Al",
                        "occu": 1
                    }
                ],
                "abc": [
                    0.5020596,
                    0.64779543,
                    0.34218886
                ],
                "xyz": [
                    2.8101774329644917,
                    3.285453271993075,
                    3.505462105755858
                ],
                "label": "Al",
                "properties": {}
            },
            {
                "species": [
                    {
                        "element": "Al",
                        "occu": 1
                    }
                ],
                "abc": [
                    0.5020596,
                    0.85220457,
                    0.84218886
                ],
                "xyz": [
                    2.3014826279644915,
                    4.322164318006924,
                    8.629127690755858
                ],
                "label": "Al",
                "properties": {}
            },
            {
                "species": [
                    {
                        "element": "B",
                        "occu": 1
                    }
                ],
                "abc": [
                    0.79880049,
                    0.67733768,
                    0.55907434
                ],
                "xyz": [
                    4.456234520627638,
                    3.435284032491861,
                    5.727332660270186
                ],
                "label": "B",
                "properties": {}
            },
            {
                "species": [
                    {
                        "element": "B",
                        "occu": 1
                    }
                ],
                "abc": [
                    0.79880049,
                    0.82266232,
                    0.05907434
                ],
                "xyz": [
                    4.964929325627638,
                    4.172333557508138,
                    0.6036670752701851
                ],
                "label": "B",
                "properties": {}
            },
            {
                "species": [
                    {
                        "element": "B",
                        "occu": 1
                    }
                ],
                "abc": [
                    0.20119951,
                    0.17733768,
                    0.94092566
                ],
                "xyz": [
                    0.3084019743723615,
                    0.8994115024918607,
                    9.641551864729816
                ],
                "label": "B",
                "properties": {}
            },
            {
                "species": [
                    {
                        "element": "B",
                        "occu": 1
                    }
                ],
                "abc": [
                    0.20119951,
                    0.32266232,
                    0.44092566
                ],
                "xyz": [
                    0.8170967793723615,
                    1.636461027508139,
                    4.517886279729815
                ],
                "label": "B",
                "properties": {}
            },
            {
                "species": [
                    {
                        "element": "O",
                        "occu": 1
                    }
                ],
                "abc": [
                    0.30125496,
                    0.30615422,
                    0.04996752
                ],
                "xyz": [
                    1.8442744404277467,
                    1.552736152883153,
                    0.5113974054194377
                ],
                "label": "O",
                "properties": {}
            },
            {
                "species": [
                    {
                        "element": "O",
                        "occu": 1
                    }
                ],
                "abc": [
                    0.73557407,
                    0.41281422,
                    0.57876839
                ],
                "xyz": [
                    4.038458236420376,
                    2.093688480982753,
                    5.929277661439841
                ],
                "label": "O",
                "properties": {}
            },
            {
                "species": [
                    {
                        "element": "O",
                        "occu": 1
                    }
                ],
                "abc": [
                    0.26442593,
                    0.91281422,
                    0.92123161
                ],
                "xyz": [
                    0.7261782585796243,
                    4.629561010982753,
                    9.43960686356016
                ],
                "label": "O",
                "properties": {}
            },
            {
                "species": [
                    {
                        "element": "O",
                        "occu": 1
                    }
                ],
                "abc": [
                    0.69874504,
                    0.80615422,
                    0.45003248
                ],
                "xyz": [
                    3.9377516645722537,
                    4.088608682883153,
                    4.610155949580563
                ],
                "label": "O",
                "properties": {}
            },
            {
                "species": [
                    {
                        "element": "O",
                        "occu": 1
                    }
                ],
                "abc": [
                    0.05063917,
                    0.29764645,
                    0.85930611
                ],
                "xyz": [
                    -0.5556922225394724,
                    1.5095869124140369,
                    8.8054873240004
                ],
                "label": "O",
                "properties": {}
            },
            {
                "species": [
                    {
                        "element": "O",
                        "occu": 1
                    }
                ],
                "abc": [
                    0.69874504,
                    0.69384578,
                    0.95003248
                ],
                "xyz": [
                    3.4290568595722535,
                    3.5190089071168464,
                    9.733821534580562
                ],
                "label": "O",
                "properties": {}
            },
            {
                "species": [
                    {
                        "element": "O",
                        "occu": 1
                    }
                ],
                "abc": [
                    0.94936083,
                    0.79764645,
                    0.64069389
                ],
                "xyz": [
                    5.320328717539473,
                    4.045459442414037,
                    6.5633972009996
                ],
                "label": "O",
                "properties": {}
            },
            {
                "species": [
                    {
                        "element": "O",
                        "occu": 1
                    }
                ],
                "abc": [
                    0.73557407,
                    0.08718578,
                    0.07876839
                ],
                "xyz": [
                    4.547153041420375,
                    0.4421840490172468,
                    0.8056120764398402
                ],
                "label": "O",
                "properties": {}
            },
            {
                "species": [
                    {
                        "element": "O",
                        "occu": 1
                    }
                ],
                "abc": [
                    0.30125496,
                    0.19384578,
                    0.54996752
                ],
                "xyz": [
                    1.3355796354277465,
                    0.9831363771168466,
                    5.6350629904194385
                ],
                "label": "O",
                "properties": {}
            },
            {
                "species": [
                    {
                        "element": "O",
                        "occu": 1
                    }
                ],
                "abc": [
                    0.60163436,
                    0.35482571,
                    0.28406076
                ],
                "xyz": [
                    3.495713382793764,
                    1.7995855418534925,
                    2.9095938899776668
                ],
                "label": "O",
                "properties": {}
            },
            {
                "species": [
                    {
                        "element": "O",
                        "occu": 1
                    }
                ],
                "abc": [
                    0.60163436,
                    0.14517429,
                    0.78406076
                ],
                "xyz": [
                    2.9870185777937643,
                    0.7362869881465074,
                    8.033259474977669
                ],
                "label": "O",
                "properties": {}
            },
            {
                "species": [
                    {
                        "element": "O",
                        "occu": 1
                    }
                ],
                "abc": [
                    0.94936083,
                    0.70235355,
                    0.14069389
                ],
                "xyz": [
                    5.829023522539472,
                    3.5621581475859627,
                    1.4397316159996005
                ],
                "label": "O",
                "properties": {}
            },
            {
                "species": [
                    {
                        "element": "O",
                        "occu": 1
                    }
                ],
                "abc": [
                    0.39836564,
                    0.64517429,
                    0.71593924
                ],
                "xyz": [
                    1.7776179172062365,
                    3.2721595181465073,
                    7.335625050022334
                ],
                "label": "O",
                "properties": {}
            },
            {
                "species": [
                    {
                        "element": "O",
                        "occu": 1
                    }
                ],
                "abc": [
                    0.05063917,
                    0.20235355,
                    0.35930611
                ],
                "xyz": [
                    -0.0469974175394724,
                    1.026285617585963,
                    3.6818217390004
                ],
                "label": "O",
                "properties": {}
            },
            {
                "species": [
                    {
                        "element": "O",
                        "occu": 1
                    }
                ],
                "abc": [
                    0.26442593,
                    0.58718578,
                    0.42123161
                ],
                "xyz": [
                    1.2348730635796241,
                    2.9780565790172466,
                    4.31594127856016
                ],
                "label": "O",
                "properties": {}
            },
            {
                "species": [
                    {
                        "element": "O",
                        "occu": 1
                    }
                ],
                "abc": [
                    0.39836564,
                    0.85482571,
                    0.21593924
                ],
                "xyz": [
                    2.2863127222062363,
                    4.335458071853492,
                    2.211959465022334
                ],
                "label": "O",
                "properties": {}
            }
        ]
    },
    "spacegroup": {
        "source": "spglib",
        "symbol": "P2_1/c",
        "number": 14,
        "point_group": "2/m",
        "crystal_system": "monoclinic",
        "hall": "-P 2ybc"
    },
    "dielectric": {
        "epsilon_ionic": [
            [
                3.26803046,
                0.0,
                -0.21671809
            ],
            [
                0.0,
                2.72726886,
                0.0
            ],
            [
                -0.21671809,
                0.0,
                3.54657613
            ]
        ],
        "epsilon_ionic_avg": 3.1806251500000005,
        "epsilon_ionic_eig": [
            3.149691856779207,
            3.664914733220793,
            2.72726886
        ],
        "epsilon_electronic": [
            [
                2.56618986,
                0.0,
                0.09328726
            ],
            [
                0.0,
                2.58788315,
                0.0
            ],
            [
                0.09328819,
                0.0,
                2.63019576
            ]
        ],
        "epsilon_electronic_avg": 2.594756256666667,
        "epsilon_electronic_eig": [
            2.499568328028423,
            2.696817291971577,
            2.58788315
        ]
    },
    "phonon": {
        "lowest_freq": -0.11285981746675436,
        "frequency": [
            -0.11285981746675436,
            -0.05053760976668155,
            -0.033068034884910016,
            2.945548130645663,
            3.2137407553669206,
            3.41953239771717,
            3.6339759870875166,
            4.356111626544585,
            4.443492676923592,
            4.649026528077585,
            5.058905028607181,
            5.180677324691337,
            5.258400900622862,
            5.793312689490519,
            5.9732105630122065,
            6.016900909918304,
            6.7281236538672635,
            6.76658726316626,
            6.992380020609629,
            7.126839271591184,
            7.474274737699228,
            7.686174814177203,
            7.790736977636507,
            7.853072300437217,
            7.956551982034676,
            8.181493380995303,
            8.872997128802862,
            8.9894637302813,
            9.171933338705317,
            9.322498907473909,
            9.324884364675636,
            9.49730667362743,
            10.132274284689123,
            10.429194443001037,
            10.531947486467777,
            10.836955567876181,
            11.255512220230464,
            11.271552902970765,
            11.58698302086027,
            11.725303471163354,
            12.125005455418934,
            12.33384627894752,
            12.356536247442532,
            12.379082507062279,
            12.633162158305199,
            12.642762298806296,
            12.702345707284996,
            13.20160945080162,
            13.396767075366547,
            13.886427853279608,
            14.041229068450773,
            14.157366626987992,
            14.285818865393312,
            14.491047096763344,
            14.805993721122631,
            14.976266695009567,
            15.316151217945094,
            15.662344054960244,
            16.07301541392219,
            16.217154119232937,
            16.756881074384378,
            16.799131560037367,
            17.034082374169664,
            17.180056322016554,
            17.429635004914914,
            17.64006393074833,
            17.93126593475806,
            18.298832947815665,
            18.398981167346452,
            18.454475418177747,
            20.42972825403443,
            20.91691664671617,
            21.069787337824796,
            21.4396099373777,
            21.76913766412153,
            21.85050883160645,
            21.985148120170606,
            22.751582199743055,
            22.83045230688312,
            23.002600866503492,
            25.540158491329755,
            26.05960863811089,
            26.06845162926605,
            26.704755912019177,
            28.00754414456386,
            28.17343170231951,
            28.20096560609127,
            28.330084686301575,
            34.47867517396079,
            34.69535821765739,
            35.46014148521154,
            35.93154822593277,
            40.505358013007616,
            40.71568926775367,
            40.8700296537628,
            42.137315892001034
        ]
    },
    "born_effective_charge": {
        "avg_abs_trace": 1.63086875,
        "tensors": [
            [
                [
                    1.05222,
                    0.02979,
                    -0.03172
                ],
                [
                    0.00433,
                    1.06878,
                    0.00676
                ],
                [
                    0.03701,
                    0.03966,
                    0.95603
                ]
            ],
            [
                [
                    1.05222,
                    -0.02979,
                    -0.03172
                ],
                [
                    -0.00433,
                    1.06878,
                    -0.00676
                ],
                [
                    0.03701,
                    -0.03966,
                    0.95603
                ]
            ],
            [
                [
                    1.05222,
                    -0.02979,
                    -0.03172
                ],
                [
                    -0.00433,
                    1.06876,
                    -0.00676
                ],
                [
                    0.03701,
                    -0.03966,
                    0.95603
                ]
            ],
            [
                [
                    1.07935,
                    -0.01319,
                    0.07854
                ],
                [
                    0.05837,
                    1.01761,
                    0.01695
                ],
                [
                    0.01329,
                    -0.08311,
                    1.04301
                ]
            ],
            [
                [
                    1.07935,
                    0.01319,
                    0.07854
                ],
                [
                    -0.05837,
                    1.01761,
                    -0.01695
                ],
                [
                    0.01329,
                    0.0831,
                    1.043
                ]
            ],
            [
                [
                    1.07935,
                    -0.01319,
                    0.07854
                ],
                [
                    0.05836,
                    1.0176,
                    0.01695
                ],
                [
                    0.01329,
                    -0.0831,
                    1.043
                ]
            ],
            [
                [
                    1.07935,
                    0.01319,
                    0.07854
                ],
                [
                    -0.05836,
                    1.0176,
                    -0.01695
                ],
                [
                    0.01329,
                    0.08311,
                    1.04301
                ]
            ],
            [
                [
                    1.05222,
                    0.02979,
                    -0.03172
                ],
                [
                    0.00433,
                    1.06876,
                    0.00676
                ],
                [
                    0.03701,
                    0.03966,
                    0.95603
                ]
            ],
            [
                [
                    2.34787,
                    -0.08111,
                    0.03006
                ],
                [
                    0.02701,
                    2.51089,
                    0.22053
                ],
                [
                    0.07808,
                    0.00857,
                    2.69506
                ]
            ],
            [
                [
                    2.34787,
                    0.08111,
                    0.03006
                ],
                [
                    -0.02701,
                    2.51084,
                    -0.22053
                ],
                [
                    0.07808,
                    -0.00857,
                    2.69506
                ]
            ],
            [
                [
                    2.34787,
                    0.08111,
                    0.03007
                ],
                [
                    -0.02701,
                    2.51089,
                    -0.22053
                ],
                [
                    0.07808,
                    -0.00856,
                    2.69506
                ]
            ],
            [
                [
                    2.34787,
                    -0.08111,
                    0.03007
                ],
                [
                    0.02701,
                    2.51084,
                    0.22053
                ],
                [
                    0.07808,
                    0.00856,
                    2.69506
                ]
            ],
            [
                [
                    1.60302,
                    0.61595,
                    0.84913
                ],
                [
                    0.57868,
                    2.17586,
                    -0.16198
                ],
                [
                    0.81679,
                    -0.36067,
                    2.02083
                ]
            ],
            [
                [
                    1.60302,
                    -0.61595,
                    0.84913
                ],
                [
                    -0.57867,
                    2.17575,
                    0.16195
                ],
                [
                    0.81679,
                    0.36067,
                    2.02083
                ]
            ],
            [
                [
                    1.60303,
                    -0.61592,
                    0.84915
                ],
                [
                    -0.57868,
                    2.17586,
                    0.16198
                ],
                [
                    0.8168,
                    0.36069,
                    2.02082
                ]
            ],
            [
                [
                    1.60303,
                    0.61592,
                    0.84915
                ],
                [
                    0.57867,
                    2.17575,
                    -0.16195
                ],
                [
                    0.8168,
                    -0.36069,
                    2.02082
                ]
            ],
            [
                [
                    -1.35235,
                    0.05276,
                    -0.59136
                ],
                [
                    0.06832,
                    -1.46926,
                    -0.25438
                ],
                [
                    -0.62062,
                    -0.33783,
                    -1.99475
                ]
            ],
            [
                [
                    -1.54316,
                    -0.39504,
                    0.14265
                ],
                [
                    -0.37332,
                    -1.99093,
                    0.23528
                ],
                [
                    0.14409,
                    0.2634,
                    -1.37261
                ]
            ],
            [
                [
                    -1.54317,
                    0.39506,
                    0.14261
                ],
                [
                    0.37332,
                    -1.99093,
                    -0.23528
                ],
                [
                    0.14412,
                    -0.26336,
                    -1.37262
                ]
            ],
            [
                [
                    -1.35241,
                    -0.05274,
                    -0.59139
                ],
                [
                    -0.06832,
                    -1.46926,
                    0.25438
                ],
                [
                    -0.62067,
                    0.33786,
                    -1.99477
                ]
            ],
            [
                [
                    -1.74191,
                    0.32441,
                    -0.47457
                ],
                [
                    0.30344,
                    -1.4495,
                    0.25515
                ],
                [
                    -0.45758,
                    0.23971,
                    -1.59121
                ]
            ],
            [
                [
                    -1.35241,
                    0.05274,
                    -0.59139
                ],
                [
                    0.0683,
                    -1.46928,
                    -0.25432
                ],
                [
                    -0.62067,
                    -0.33786,
                    -1.99477
                ]
            ],
            [
                [
                    -1.74192,
                    -0.32449,
                    -0.47462
                ],
                [
                    -0.30344,
                    -1.4495,
                    -0.25515
                ],
                [
                    -0.45758,
                    -0.23975,
                    -1.59127
                ]
            ],
            [
                [
                    -1.54316,
                    0.39504,
                    0.14265
                ],
                [
                    0.3733,
                    -1.99086,
                    -0.23532
                ],
                [
                    0.14409,
                    -0.2634,
                    -1.37261
                ]
            ],
            [
                [
                    -1.35235,
                    -0.05276,
                    -0.59136
                ],
                [
                    -0.0683,
                    -1.46928,
                    0.25432
                ],
                [
                    -0.62062,
                    0.33783,
                    -1.99475
                ]
            ],
            [
                [
                    -1.44501,
                    0.09347,
                    -0.00271
                ],
                [
                    0.06682,
                    -1.86337,
                    -0.39781
                ],
                [
                    -0.01107,
                    -0.37796,
                    -1.75631
                ]
            ],
            [
                [
                    -1.44501,
                    -0.09347,
                    -0.00271
                ],
                [
                    -0.06682,
                    -1.86333,
                    0.3978
                ],
                [
                    -0.01107,
                    0.37796,
                    -1.75631
                ]
            ],
            [
                [
                    -1.74192,
                    0.32449,
                    -0.47462
                ],
                [
                    0.3034,
                    -1.44955,
                    0.25516
                ],
                [
                    -0.45758,
                    0.23975,
                    -1.59127
                ]
            ],
            [
                [
                    -1.44499,
                    0.09346,
                    -0.00267
                ],
                [
                    0.06682,
                    -1.86333,
                    -0.3978
                ],
                [
                    -0.01104,
                    -0.37795,
                    -1.7563
                ]
            ],
            [
                [
                    -1.74191,
                    -0.32441,
                    -0.47457
                ],
                [
                    -0.3034,
                    -1.44955,
                    -0.25516
                ],
                [
                    -0.45758,
                    -0.23971,
                    -1.59121
                ]
            ],
            [
                [
                    -1.54317,
                    -0.39506,
                    0.14261
                ],
                [
                    -0.3733,
                    -1.99086,
                    0.23532
                ],
                [
                    0.14412,
                    0.26336,
                    -1.37262
                ]
            ],
            [
                [
                    -1.44499,
                    -0.09346,
                    -0.00267
                ],
                [
                    -0.06682,
                    -1.86337,
                    0.39781
                ],
                [
                    -0.01104,
                    0.37795,
                    -1.7563
                ]
            ]
        ]
    },
    "band_gap": 4.8794,
    "is_direct": false,
    "formula": "Li2AlBO4"
}