{
    "mp_id": "mp-561013",
    "nelements": 3,
    "nsites": 14,
    "elements": [
        "Ga",
        "O",
        "Pb"
    ],
    "structure": {
        "@module": "pymatgen.core.structure",
        "@class": "Structure",
        "charge": null,
        "lattice": {
            "matrix": [
                [
                    8.53549934,
                    0.0,
                    0.0
                ],
                [
                    0.0,
                    4.67345497,
                    2.62370953
                ],
                [
                    0.0,
                    -4.67345497,
                    2.62370953
                ]
            ],
            "a": 8.53549934,
            "b": 5.359573962026322,
            "c": 5.359573962026322,
            "alpha": 121.37969666256295,
            "beta": 90.0,
            "gamma": 90.0,
            "volume": 209.32097261463193
        },
        "sites": [
            {
                "species": [
                    {
                        "element": "Ga",
                        "occu": 1
                    }
                ],
                "abc": [
                    0.44793395,
                    0.290083,
                    0.63692233
                ],
                "xyz": [
                    3.823339934588593,
                    -1.6209379905799701,
                    2.432192718681795
                ],
                "label": "Ga",
                "properties": {}
            },
            {
                "species": [
                    {
                        "element": "Ga",
                        "occu": 1
                    }
                ],
                "abc": [
                    0.05206605,
                    0.290083,
                    0.63692233
                ],
                "xyz": [
                    0.444409735411407,
                    -1.6209379905799701,
                    2.432192718681795
                ],
                "label": "Ga",
                "properties": {}
            },
            {
                "species": [
                    {
                        "element": "Ga",
                        "occu": 1
                    }
                ],
                "abc": [
                    0.55206605,
                    0.63692233,
                    0.290083
                ],
                "xyz": [
                    4.712159405411406,
                    1.6209379905799701,
                    2.432192718681795
                ],
                "label": "Ga",
                "properties": {}
            },
            {
                "species": [
                    {
                        "element": "Ga",
                        "occu": 1
                    }
                ],
                "abc": [
                    0.94793395,
                    0.63692233,
                    0.290083
                ],
                "xyz": [
                    8.091089604588593,
                    1.6209379905799701,
                    2.432192718681795
                ],
                "label": "Ga",
                "properties": {}
            },
            {
                "species": [
                    {
                        "element": "Pb",
                        "occu": 1
                    }
                ],
                "abc": [
                    0.25,
                    0.97977441,
                    0.02844143
                ],
                "xyz": [
                    2.133874835,
                    4.446011843505911,
                    2.645265507704955
                ],
                "label": "Pb",
                "properties": {}
            },
            {
                "species": [
                    {
                        "element": "Pb",
                        "occu": 1
                    }
                ],
                "abc": [
                    0.75,
                    0.02844143,
                    0.97977441
                ],
                "xyz": [
                    6.401624504999999,
                    -4.446011843505911,
                    2.645265507704955
                ],
                "label": "Pb",
                "properties": {}
            },
            {
                "species": [
                    {
                        "element": "O",
                        "occu": 1
                    }
                ],
                "abc": [
                    0.5,
                    0.31817506,
                    0.31817506
                ],
                "xyz": [
                    4.26774967,
                    0.0,
                    1.6695978742606437
                ],
                "label": "O",
                "properties": {}
            },
            {
                "species": [
                    {
                        "element": "O",
                        "occu": 1
                    }
                ],
                "abc": [
                    0.56104722,
                    0.99313166,
                    0.63216692
                ],
                "xyz": [
                    4.788818176018834,
                    1.6869524581477577,
                    4.264311373441467
                ],
                "label": "O",
                "properties": {}
            },
            {
                "species": [
                    {
                        "element": "O",
                        "occu": 1
                    }
                ],
                "abc": [
                    0.06104722,
                    0.63216692,
                    0.99313166
                ],
                "xyz": [
                    0.5210685060188348,
                    -1.6869524581477577,
                    4.264311373441467
                ],
                "label": "O",
                "properties": {}
            },
            {
                "species": [
                    {
                        "element": "O",
                        "occu": 1
                    }
                ],
                "abc": [
                    0.0,
                    0.31817506,
                    0.31817506
                ],
                "xyz": [
                    0.0,
                    0.0,
                    1.6695978742606437
                ],
                "label": "O",
                "properties": {}
            },
            {
                "species": [
                    {
                        "element": "O",
                        "occu": 1
                    }
                ],
                "abc": [
                    0.93895278,
                    0.99313166,
                    0.63216692
                ],
                "xyz": [
                    8.014430833981166,
                    1.6869524581477577,
                    4.264311373441467
                ],
                "label": "O",
                "properties": {}
            },
            {
                "species": [
                    {
                        "element": "O",
                        "occu": 1
                    }
                ],
                "abc": [
                    0.25,
                    0.12530024,
                    0.51356299
                ],
                "xyz": [
                    2.133874835,
                    -1.8145284786533673,
                    1.6761915449175822
                ],
                "label": "O",
                "properties": {}
            },
            {
                "species": [
                    {
                        "element": "O",
                        "occu": 1
                    }
                ],
                "abc": [
                    0.75,
                    0.51356299,
                    0.12530024
                ],
                "xyz": [
                    6.401624504999999,
                    1.8145284786533673,
                    1.6761915449175822
                ],
                "label": "O",
                "properties": {}
            },
            {
                "species": [
                    {
                        "element": "O",
                        "occu": 1
                    }
                ],
                "abc": [
                    0.43895278,
                    0.63216692,
                    0.99313166
                ],
                "xyz": [
                    3.746681163981165,
                    -1.6869524581477577,
                    4.264311373441467
                ],
                "label": "O",
                "properties": {}
            }
        ]
    },
    "spacegroup": {
        "source": "spglib",
        "symbol": "Ama2",
        "number": 40,
        "point_group": "mm2",
        "crystal_system": "orthorhombic",
        "hall": "A 2 -2a"
    },
    "dielectric": {
        "epsilon_ionic": [
            [
                44.52380657,
                0.0,
                -1.865e-05
            ],
            [
                0.0,
                9.37329475,
                -9.528e-05
            ],
            [
                -1.865e-05,
                -9.528e-05,
                5.05428044
            ]
        ],
        "epsilon_ionic_avg": 19.650460586666668,
        "epsilon_ionic_eig": [
            44.52380657000882,
            5.0542804378892505,
            9.373294752101929
        ],
        "epsilon_electronic": [
            [
                4.18366003,
                0.0,
                0.0
            ],
            [
                0.0,
                4.12947686,
                0.0
            ],
            [
                0.0,
                0.0,
                4.22892576
            ]
        ],
        "epsilon_electronic_avg": 4.180687549999999,
        "epsilon_electronic_eig": [
            4.18366003,
            4.12947686,
            4.22892576
        ]
    },
    "phonon": {
        "lowest_freq": -0.08838658891998186,
        "frequency": [
            -0.08838658891998186,
            -0.037657382204216806,
            -0.03227503872118153,
            0.6407979274615262,
            1.4936707460592817,
            2.3606371174753,
            2.4577446805415626,
            2.63248352600866,
            2.6546223599844474,
            3.223836502761126,
            3.684366534387305,
            3.6960437771348027,
            4.6418102394902245,
            5.292232280731149,
            5.381021109195588,
            5.765232400630504,
            6.117866503039186,
            6.788576644417238,
            7.039088115703982,
            7.144343515357071,
            7.439594113073565,
            7.578320633358872,
            8.030239924777673,
            8.950849442434151,
            9.699854450219188,
            10.080764622780242,
            11.724901793422843,
            11.816942069020202,
            12.876813561217947,
            12.881890660081362,
            14.85388471644195,
            15.311972366006142,
            15.391995995691422,
            16.569948964164997,
            19.166433671373905,
            19.358394226894955,
            19.621147769878245,
            19.81512684554383,
            19.950766026532648,
            21.821892756131003,
            21.855036426657346,
            22.485903790703993
        ]
    },
    "born_effective_charge": {
        "avg_abs_trace": 2.458175714285715,
        "tensors": [
            [
                [
                    2.56663,
                    0.02165,
                    0.0362
                ],
                [
                    0.11855,
                    2.80324,
                    -0.14449
                ],
                [
                    -0.03773,
                    -0.07985,
                    2.97002
                ]
            ],
            [
                [
                    2.56664,
                    -0.02165,
                    -0.03619
                ],
                [
                    -0.11855,
                    2.80324,
                    -0.14449
                ],
                [
                    0.03773,
                    -0.07985,
                    2.97002
                ]
            ],
            [
                [
                    2.56664,
                    0.02165,
                    -0.03619
                ],
                [
                    0.11853,
                    2.80329,
                    0.14461
                ],
                [
                    0.03773,
                    0.07985,
                    2.97002
                ]
            ],
            [
                [
                    2.56663,
                    -0.02165,
                    0.0362
                ],
                [
                    -0.11853,
                    2.80329,
                    0.14461
                ],
                [
                    -0.03773,
                    0.07985,
                    2.97002
                ]
            ],
            [
                [
                    3.59036,
                    -2e-05,
                    -1e-05
                ],
                [
                    0.0,
                    2.79976,
                    0.10905
                ],
                [
                    -0.0,
                    -0.00257,
                    2.74078
                ]
            ],
            [
                [
                    3.59036,
                    2e-05,
                    -1e-05
                ],
                [
                    0.0,
                    2.79998,
                    -0.10935
                ],
                [
                    -0.0,
                    0.00257,
                    2.74078
                ]
            ],
            [
                [
                    -2.13746,
                    0.46288,
                    1e-05
                ],
                [
                    0.77264,
                    -2.40076,
                    -4e-05
                ],
                [
                    -0.0,
                    0.0,
                    -1.91852
                ]
            ],
            [
                [
                    -1.96946,
                    -0.81917,
                    -0.02222
                ],
                [
                    -0.62738,
                    -2.0363,
                    -0.0761
                ],
                [
                    0.14395,
                    0.19054,
                    -2.35951
                ]
            ],
            [
                [
                    -1.96946,
                    0.81917,
                    -0.02222
                ],
                [
                    0.62769,
                    -2.03656,
                    0.07602
                ],
                [
                    0.14395,
                    -0.19054,
                    -2.35951
                ]
            ],
            [
                [
                    -2.13746,
                    -0.46288,
                    1e-05
                ],
                [
                    -0.77264,
                    -2.40076,
                    -4e-05
                ],
                [
                    -0.0,
                    0.0,
                    -1.91852
                ]
            ],
            [
                [
                    -1.96947,
                    0.81915,
                    0.02222
                ],
                [
                    0.62738,
                    -2.0363,
                    -0.0761
                ],
                [
                    -0.14395,
                    0.19054,
                    -2.35951
                ]
            ],
            [
                [
                    -2.64724,
                    1e-05,
                    0.0
                ],
                [
                    0.0,
                    -1.93269,
                    0.70612
                ],
                [
                    -0.0,
                    0.75263,
                    -2.04327
                ]
            ],
            [
                [
                    -2.64724,
                    -1e-05,
                    0.0
                ],
                [
                    0.0,
                    -1.93287,
                    -0.70584
                ],
                [
                    -0.0,
                    -0.75263,
                    -2.04327
                ]
            ],
            [
                [
                    -1.96947,
                    -0.81915,
                    0.02222
                ],
                [
                    -0.62769,
                    -2.03656,
                    0.07602
                ],
                [
                    -0.14395,
                    -0.19054,
                    -2.35951
                ]
            ]
        ]
    },
    "band_gap": 3.4182,
    "is_direct": false,
    "formula": "Ga2PbO4"
}