{
    "mp_id": "mp-554206",
    "nelements": 4,
    "nsites": 13,
    "elements": [
        "Al",
        "As",
        "Cs",
        "O"
    ],
    "structure": {
        "@module": "pymatgen.core.structure",
        "@class": "Structure",
        "charge": null,
        "lattice": {
            "matrix": [
                [
                    -2.74891747,
                    4.91934855,
                    4.51335523
                ],
                [
                    2.74891747,
                    -4.91934855,
                    4.51335523
                ],
                [
                    2.74891747,
                    4.91934855,
                    -4.51335523
                ]
            ],
            "a": 7.219897010721597,
            "b": 7.219897010721597,
            "c": 7.219897010721597,
            "alpha": 135.24070673936143,
            "beta": 94.09999061471835,
            "gamma": 102.6169266329967,
            "volume": 244.13430192205504
        },
        "sites": [
            {
                "species": [
                    {
                        "element": "Cs",
                        "occu": 1
                    }
                ],
                "abc": [
                    0.33820403,
                    0.33820403,
                    0.0
                ],
                "xyz": [
                    0.0,
                    0.0,
                    3.0528698552151536
                ],
                "label": "Cs",
                "properties": {}
            },
            {
                "species": [
                    {
                        "element": "Cs",
                        "occu": 1
                    }
                ],
                "abc": [
                    0.69544981,
                    0.19544981,
                    0.5
                ],
                "xyz": [
                    2.220446049250313e-16,
                    4.919348549999999,
                    1.7642688443320127
                ],
                "label": "Cs",
                "properties": {}
            },
            {
                "species": [
                    {
                        "element": "Al",
                        "occu": 1
                    }
                ],
                "abc": [
                    0.77335489,
                    0.93868554,
                    0.83467035
                ],
                "xyz": [
                    2.74892021891747,
                    3.2927152826524346,
                    3.959882839213519
                ],
                "label": "Al",
                "properties": {}
            },
            {
                "species": [
                    {
                        "element": "Al",
                        "occu": 1
                    }
                ],
                "abc": [
                    0.10401518,
                    0.93868554,
                    0.16532965
                ],
                "xyz": [
                    2.748917497489175,
                    -3.2927202511944706,
                    3.959887307435197
                ],
                "label": "Al",
                "properties": {}
            },
            {
                "species": [
                    {
                        "element": "As",
                        "occu": 1
                    }
                ],
                "abc": [
                    0.31535794,
                    0.61422687,
                    0.70113007
                ],
                "xyz": [
                    2.7489147210825298,
                    1.978862755780347,
                    1.03109739559729
                ],
                "label": "As",
                "properties": {}
            },
            {
                "species": [
                    {
                        "element": "As",
                        "occu": 1
                    }
                ],
                "abc": [
                    0.9130968,
                    0.61422687,
                    0.29886993
                ],
                "xyz": [
                    -1.1102230246251565e-16,
                    2.9404907135682024,
                    5.54444811224206
                ],
                "label": "As",
                "properties": {}
            },
            {
                "species": [
                    {
                        "element": "O",
                        "occu": 1
                    }
                ],
                "abc": [
                    0.26106576,
                    0.74459348,
                    0.00503601
                ],
                "xyz": [
                    1.3430213726053633,
                    -2.3538674997755207,
                    4.516168088379993
                ],
                "label": "O",
                "properties": {}
            },
            {
                "species": [
                    {
                        "element": "O",
                        "occu": 1
                    }
                ],
                "abc": [
                    0.00492335,
                    0.00492335,
                    0.0
                ],
                "xyz": [
                    0.0,
                    0.0,
                    0.044441654943241
                ],
                "label": "O",
                "properties": {}
            },
            {
                "species": [
                    {
                        "element": "O",
                        "occu": 1
                    }
                ],
                "abc": [
                    0.5807358,
                    0.74244027,
                    0.83829553
                ],
                "xyz": [
                    2.74891747,
                    3.328387249953963,
                    2.1884381211342245
                ],
                "label": "O",
                "properties": {}
            },
            {
                "species": [
                    {
                        "element": "O",
                        "occu": 1
                    }
                ],
                "abc": [
                    0.26106576,
                    0.25602976,
                    0.51647228
                ],
                "xyz": [
                    1.4058961248838118,
                    2.5654810010309936,
                    0.0028129035135453506
                ],
                "label": "O",
                "properties": {}
            },
            {
                "species": [
                    {
                        "element": "O",
                        "occu": 1
                    }
                ],
                "abc": [
                    0.73955747,
                    0.25602976,
                    0.99496399
                ],
                "xyz": [
                    1.4058961248838115,
                    7.2732160005820345,
                    0.0028129035135453506
                ],
                "label": "O",
                "properties": {}
            },
            {
                "species": [
                    {
                        "element": "O",
                        "occu": 1
                    }
                ],
                "abc": [
                    0.73955747,
                    0.74459348,
                    0.48352772
                ],
                "xyz": [
                    1.3430213726053628,
                    2.3538674997755202,
                    4.516168088379993
                ],
                "label": "O",
                "properties": {}
            },
            {
                "species": [
                    {
                        "element": "O",
                        "occu": 1
                    }
                ],
                "abc": [
                    0.90414574,
                    0.74244027,
                    0.16170447
                ],
                "xyz": [
                    -2.7489174699302232e-06,
                    1.5909662193945873,
                    6.701797864489454
                ],
                "label": "O",
                "properties": {}
            }
        ]
    },
    "spacegroup": {
        "source": "spglib",
        "symbol": "Imm2",
        "number": 44,
        "point_group": "mm2",
        "crystal_system": "orthorhombic",
        "hall": "I 2 -2"
    },
    "dielectric": {
        "epsilon_ionic": [
            [
                5.03007691,
                0.0,
                -2.248e-05
            ],
            [
                0.0,
                3.07911584,
                -0.00026675
            ],
            [
                -2.248e-05,
                -0.00026675,
                3.99852484
            ]
        ],
        "epsilon_ionic_avg": 4.035905863333332,
        "epsilon_ionic_eig": [
            5.030076910489891,
            3.9985249169028165,
            3.0791157626072874
        ],
        "epsilon_electronic": [
            [
                3.04995055,
                0.0,
                0.0
            ],
            [
                0.0,
                2.87691177,
                0.0
            ],
            [
                0.0,
                0.0,
                3.00641073
            ]
        ],
        "epsilon_electronic_avg": 2.9777576833333335,
        "epsilon_electronic_eig": [
            3.04995055,
            2.87691177,
            3.00641073
        ]
    },
    "phonon": {
        "lowest_freq": -0.10047193679298731,
        "frequency": [
            -0.10047193679298731,
            -0.052665461884019306,
            -0.04729124392931698,
            0.9662389589007468,
            1.399252716311585,
            1.4637869455299766,
            1.535358344994105,
            1.639745374468452,
            2.115107546425732,
            2.1888031147698768,
            2.2963305620236447,
            3.3344803682879682,
            3.3618165299925793,
            4.018809952873442,
            5.011078173036623,
            5.596230125715194,
            7.04649631635165,
            7.515126522600222,
            7.887694302579746,
            8.429746595621362,
            8.47182003925834,
            8.756797569988004,
            9.519367463173246,
            10.14603808592589,
            10.596735349201408,
            14.681293171795772,
            14.811477432493316,
            16.13467604521699,
            16.329504042966335,
            17.37053203291539,
            17.57397401162909,
            19.331843211848184,
            21.43434518798104,
            21.486721647249716,
            22.350989768418586,
            23.554533273779587,
            25.547595968281723,
            25.684217817531426,
            27.449619161794942
        ]
    },
    "born_effective_charge": {
        "avg_abs_trace": 1.9426133333333335,
        "tensors": [
            [
                [
                    1.06133,
                    -0.0,
                    0.0
                ],
                [
                    -0.0,
                    1.46414,
                    -2e-05
                ],
                [
                    -0.0,
                    -0.0,
                    1.4963
                ]
            ],
            [
                [
                    1.56946,
                    -0.0,
                    -2e-05
                ],
                [
                    -0.0,
                    1.44486,
                    -0.00019
                ],
                [
                    -0.0,
                    0.0,
                    1.05116
                ]
            ],
            [
                [
                    2.96713,
                    2e-05,
                    -0.0
                ],
                [
                    -0.0,
                    2.33391,
                    0.33077
                ],
                [
                    -0.0,
                    -0.42736,
                    2.91656
                ]
            ],
            [
                [
                    2.96713,
                    -2e-05,
                    -0.0
                ],
                [
                    0.0,
                    2.33379,
                    -0.33098
                ],
                [
                    -0.0,
                    0.42736,
                    2.91656
                ]
            ],
            [
                [
                    2.56647,
                    -1e-05,
                    4e-05
                ],
                [
                    -0.0,
                    1.75187,
                    0.34459
                ],
                [
                    -0.0,
                    0.37818,
                    2.36123
                ]
            ],
            [
                [
                    2.56647,
                    1e-05,
                    4e-05
                ],
                [
                    0.0,
                    1.75135,
                    -0.34455
                ],
                [
                    -0.0,
                    -0.37818,
                    2.36123
                ]
            ],
            [
                [
                    -2.47124,
                    -0.15321,
                    0.9164
                ],
                [
                    0.07814,
                    -1.29766,
                    0.09389
                ],
                [
                    0.78212,
                    0.17806,
                    -1.60382
                ]
            ],
            [
                [
                    -1.53286,
                    0.0,
                    -1e-05
                ],
                [
                    0.0,
                    -2.40816,
                    -0.00018
                ],
                [
                    0.0,
                    0.0,
                    -1.7169
                ]
            ],
            [
                [
                    -1.14025,
                    5e-05,
                    -0.00011
                ],
                [
                    -0.0,
                    -1.74026,
                    -0.77001
                ],
                [
                    -0.0,
                    -0.95433,
                    -2.48544
                ]
            ],
            [
                [
                    -2.47108,
                    0.15324,
                    -0.91631
                ],
                [
                    -0.07814,
                    -1.29766,
                    0.09389
                ],
                [
                    -0.78212,
                    0.17806,
                    -1.60382
                ]
            ],
            [
                [
                    -2.47108,
                    -0.15324,
                    -0.91631
                ],
                [
                    0.078,
                    -1.29791,
                    -0.09374
                ],
                [
                    -0.78212,
                    -0.17806,
                    -1.60382
                ]
            ],
            [
                [
                    -2.47124,
                    0.15321,
                    0.9164
                ],
                [
                    -0.078,
                    -1.29791,
                    -0.09374
                ],
                [
                    0.78212,
                    -0.17806,
                    -1.60382
                ]
            ],
            [
                [
                    -1.14025,
                    -5e-05,
                    -0.00011
                ],
                [
                    0.0,
                    -1.74035,
                    0.77026
                ],
                [
                    -0.0,
                    0.95433,
                    -2.48544
                ]
            ]
        ]
    },
    "band_gap": 3.5762,
    "is_direct": false,
    "formula": "Cs2Al2As2O7"
}