{
    "mp_id": "mp-556896",
    "nelements": 4,
    "nsites": 24,
    "elements": [
        "Ag",
        "Au",
        "Ba",
        "O"
    ],
    "structure": {
        "@module": "pymatgen.core.structure",
        "@class": "Structure",
        "charge": null,
        "lattice": {
            "matrix": [
                [
                    6.60955358,
                    -2.88847278,
                    0.0
                ],
                [
                    6.60955358,
                    2.88847278,
                    0.0
                ],
                [
                    0.0,
                    0.0,
                    11.36231298
                ]
            ],
            "a": 7.213145882878825,
            "b": 7.213145882878825,
            "c": 11.36231298,
            "alpha": 90.0,
            "beta": 90.0,
            "gamma": 47.21208039662487,
            "volume": 433.8475511054393
        },
        "sites": [
            {
                "species": [
                    {
                        "element": "Ba",
                        "occu": 1
                    }
                ],
                "abc": [
                    0.79083903,
                    0.91803039,
                    0.25
                ],
                "xyz": [
                    11.294863992713523,
                    0.3673887812111807,
                    2.840578245
                ],
                "label": "Ba",
                "properties": {}
            },
            {
                "species": [
                    {
                        "element": "Ba",
                        "occu": 1
                    }
                ],
                "abc": [
                    0.35335087,
                    0.35335087,
                    0.0
                ],
                "xyz": [
                    4.670983015609229,
                    0.0,
                    0.0
                ],
                "label": "Ba",
                "properties": {}
            },
            {
                "species": [
                    {
                        "element": "Ba",
                        "occu": 1
                    }
                ],
                "abc": [
                    0.20916097,
                    0.08196961,
                    0.75
                ],
                "xyz": [
                    1.9242431672864764,
                    -0.3673887812111808,
                    8.521734735
                ],
                "label": "Ba",
                "properties": {}
            },
            {
                "species": [
                    {
                        "element": "Ba",
                        "occu": 1
                    }
                ],
                "abc": [
                    0.08196961,
                    0.20916097,
                    0.25
                ],
                "xyz": [
                    1.9242431672864764,
                    0.3673887812111808,
                    2.840578245
                ],
                "label": "Ba",
                "properties": {}
            },
            {
                "species": [
                    {
                        "element": "Ba",
                        "occu": 1
                    }
                ],
                "abc": [
                    0.91803039,
                    0.79083903,
                    0.75
                ],
                "xyz": [
                    11.294863992713523,
                    -0.3673887812111807,
                    8.521734735
                ],
                "label": "Ba",
                "properties": {}
            },
            {
                "species": [
                    {
                        "element": "Ba",
                        "occu": 1
                    }
                ],
                "abc": [
                    0.64664913,
                    0.64664913,
                    0.5
                ],
                "xyz": [
                    8.548124144390771,
                    0.0,
                    5.68115649
                ],
                "label": "Ba",
                "properties": {}
            },
            {
                "species": [
                    {
                        "element": "Ba",
                        "occu": 1
                    }
                ],
                "abc": [
                    0.64664913,
                    0.64664913,
                    0.0
                ],
                "xyz": [
                    8.548124144390771,
                    0.0,
                    0.0
                ],
                "label": "Ba",
                "properties": {}
            },
            {
                "species": [
                    {
                        "element": "Ba",
                        "occu": 1
                    }
                ],
                "abc": [
                    0.35335087,
                    0.35335087,
                    0.5
                ],
                "xyz": [
                    4.670983015609229,
                    0.0,
                    5.68115649
                ],
                "label": "Ba",
                "properties": {}
            },
            {
                "species": [
                    {
                        "element": "Ag",
                        "occu": 1
                    }
                ],
                "abc": [
                    0.58799022,
                    0.41200978,
                    0.75
                ],
                "xyz": [
                    6.60955358,
                    -0.5083147107524231,
                    8.521734735
                ],
                "label": "Ag",
                "properties": {}
            },
            {
                "species": [
                    {
                        "element": "Ag",
                        "occu": 1
                    }
                ],
                "abc": [
                    0.41200978,
                    0.58799022,
                    0.25
                ],
                "xyz": [
                    6.60955358,
                    0.5083147107524231,
                    2.840578245
                ],
                "label": "Ag",
                "properties": {}
            },
            {
                "species": [
                    {
                        "element": "Au",
                        "occu": 1
                    }
                ],
                "abc": [
                    0.0,
                    0.0,
                    0.5
                ],
                "xyz": [
                    0.0,
                    0.0,
                    5.68115649
                ],
                "label": "Au",
                "properties": {}
            },
            {
                "species": [
                    {
                        "element": "Au",
                        "occu": 1
                    }
                ],
                "abc": [
                    0.0,
                    0.0,
                    0.0
                ],
                "xyz": [
                    0.0,
                    0.0,
                    0.0
                ],
                "label": "Au",
                "properties": {}
            },
            {
                "species": [
                    {
                        "element": "O",
                        "occu": 1
                    }
                ],
                "abc": [
                    0.75583962,
                    0.56327603,
                    0.75
                ],
                "xyz": [
                    8.718765566891527,
                    -0.5562146881340801,
                    8.521734735
                ],
                "label": "O",
                "properties": {}
            },
            {
                "species": [
                    {
                        "element": "O",
                        "occu": 1
                    }
                ],
                "abc": [
                    0.84670697,
                    0.84670697,
                    0.0
                ],
                "xyz": [
                    11.192710169548905,
                    0.0,
                    0.0
                ],
                "label": "O",
                "properties": {}
            },
            {
                "species": [
                    {
                        "element": "O",
                        "occu": 1
                    }
                ],
                "abc": [
                    0.43672397,
                    0.24416038,
                    0.75
                ],
                "xyz": [
                    4.500341593108473,
                    -0.5562146881340801,
                    8.521734735
                ],
                "label": "O",
                "properties": {}
            },
            {
                "species": [
                    {
                        "element": "O",
                        "occu": 1
                    }
                ],
                "abc": [
                    0.26927028,
                    0.73072972,
                    0.89085797
                ],
                "xyz": [
                    6.60955358,
                    1.3329130315140434,
                    10.12220707586745
                ],
                "label": "O",
                "properties": {}
            },
            {
                "species": [
                    {
                        "element": "O",
                        "occu": 1
                    }
                ],
                "abc": [
                    0.84670697,
                    0.84670697,
                    0.5
                ],
                "xyz": [
                    11.192710169548905,
                    0.0,
                    5.68115649
                ],
                "label": "O",
                "properties": {}
            },
            {
                "species": [
                    {
                        "element": "O",
                        "occu": 1
                    }
                ],
                "abc": [
                    0.15329303,
                    0.15329303,
                    0.5
                ],
                "xyz": [
                    2.0263969904510946,
                    0.0,
                    5.68115649
                ],
                "label": "O",
                "properties": {}
            },
            {
                "species": [
                    {
                        "element": "O",
                        "occu": 1
                    }
                ],
                "abc": [
                    0.56327603,
                    0.75583962,
                    0.25
                ],
                "xyz": [
                    8.718765566891527,
                    0.5562146881340801,
                    2.840578245
                ],
                "label": "O",
                "properties": {}
            },
            {
                "species": [
                    {
                        "element": "O",
                        "occu": 1
                    }
                ],
                "abc": [
                    0.24416038,
                    0.43672397,
                    0.25
                ],
                "xyz": [
                    4.500341593108473,
                    0.5562146881340801,
                    2.840578245
                ],
                "label": "O",
                "properties": {}
            },
            {
                "species": [
                    {
                        "element": "O",
                        "occu": 1
                    }
                ],
                "abc": [
                    0.26927028,
                    0.73072972,
                    0.60914203
                ],
                "xyz": [
                    6.60955358,
                    1.3329130315140434,
                    6.921262394132549
                ],
                "label": "O",
                "properties": {}
            },
            {
                "species": [
                    {
                        "element": "O",
                        "occu": 1
                    }
                ],
                "abc": [
                    0.15329303,
                    0.15329303,
                    0.0
                ],
                "xyz": [
                    2.0263969904510946,
                    0.0,
                    0.0
                ],
                "label": "O",
                "properties": {}
            },
            {
                "species": [
                    {
                        "element": "O",
                        "occu": 1
                    }
                ],
                "abc": [
                    0.73072972,
                    0.26927028,
                    0.10914203
                ],
                "xyz": [
                    6.60955358,
                    -1.3329130315140434,
                    1.2401059041325495
                ],
                "label": "O",
                "properties": {}
            },
            {
                "species": [
                    {
                        "element": "O",
                        "occu": 1
                    }
                ],
                "abc": [
                    0.73072972,
                    0.26927028,
                    0.39085797
                ],
                "xyz": [
                    6.60955358,
                    -1.3329130315140434,
                    4.441050585867451
                ],
                "label": "O",
                "properties": {}
            }
        ]
    },
    "spacegroup": {
        "source": "spglib",
        "symbol": "Cmcm",
        "number": 63,
        "point_group": "mmm",
        "crystal_system": "orthorhombic",
        "hall": "-C 2c 2"
    },
    "dielectric": {
        "epsilon_ionic": [
            [
                6.65412651,
                7e-08,
                -0.0
            ],
            [
                7e-08,
                11.03154793,
                -1e-08
            ],
            [
                -0.0,
                -1e-08,
                16.69719945
            ]
        ],
        "epsilon_ionic_avg": 11.460957963333334,
        "epsilon_ionic_eig": [
            6.654126509999999,
            11.031547930000002,
            16.69719945
        ],
        "epsilon_electronic": [
            [
                5.53813551,
                0.0,
                0.0
            ],
            [
                0.0,
                5.26327238,
                -0.0
            ],
            [
                0.0,
                -0.0,
                4.9937962
            ]
        ],
        "epsilon_electronic_avg": 5.26506803,
        "epsilon_electronic_eig": [
            5.53813551,
            5.26327238,
            4.9937962
        ]
    },
    "phonon": {
        "lowest_freq": -0.07698129388610513,
        "frequency": [
            -0.07698129388610513,
            -0.01713612628025993,
            -0.016398662178189412,
            1.5322417582242123,
            1.6338789339126951,
            1.884430934269053,
            1.8953165901757356,
            2.1122852502470764,
            2.1500338207041,
            2.245146686327297,
            2.4969007681071202,
            2.524509390088061,
            2.6962378108898397,
            2.71345712800534,
            2.7868688961512773,
            2.822914415449058,
            2.8365989120770316,
            2.9839463637041885,
            3.1503350494572877,
            3.175347994252294,
            3.184836803425705,
            3.2680913081960608,
            3.2987642329181863,
            3.3480127836024827,
            3.434509843648637,
            3.516486400009602,
            3.525753319673002,
            3.704671433764661,
            3.9255856703809537,
            3.931475207545357,
            3.982448146528097,
            4.185920121823122,
            4.229257429515485,
            4.347671283247288,
            4.384376742777192,
            4.426718401676669,
            4.653622007382796,
            5.259109224619448,
            5.60711073808179,
            5.70460725888803,
            5.92445194944913,
            6.007692780646762,
            6.186959210127339,
            6.348093864454065,
            6.424320390100356,
            6.524673670539821,
            6.643460997745768,
            6.888036178751941,
            7.620195817262903,
            7.744654058260935,
            8.451461282068834,
            8.798295698275417,
            9.072888996606142,
            9.246284465104916,
            9.335055005720424,
            9.340686454773046,
            10.07514835480973,
            10.140558219214538,
            10.6940030900415,
            10.890827853104573,
            12.21080340001899,
            12.413902542942747,
            13.12957514492914,
            13.176409339514487,
            15.24917266636104,
            15.255101647742224,
            15.829007391944728,
            15.912672202313807,
            16.736098987600627,
            16.803689676193333,
            16.994060979815195,
            17.657613983944827
        ]
    },
    "born_effective_charge": {
        "avg_abs_trace": 2.1958256944444443,
        "tensors": [
            [
                [
                    2.82828,
                    0.16501,
                    0.0
                ],
                [
                    0.00254,
                    2.577,
                    -0.0
                ],
                [
                    -0.0,
                    -3e-05,
                    2.67484
                ]
            ],
            [
                [
                    2.97059,
                    -0.0,
                    0.0
                ],
                [
                    8e-05,
                    2.79474,
                    -0.51251
                ],
                [
                    -4e-05,
                    0.05354,
                    2.64416
                ]
            ],
            [
                [
                    2.82771,
                    0.16546,
                    0.0
                ],
                [
                    0.00237,
                    2.57774,
                    -0.0
                ],
                [
                    0.0,
                    3e-05,
                    2.67484
                ]
            ],
            [
                [
                    2.82771,
                    -0.16546,
                    0.0
                ],
                [
                    -0.00254,
                    2.577,
                    -0.0
                ],
                [
                    0.0,
                    -3e-05,
                    2.67484
                ]
            ],
            [
                [
                    2.82828,
                    -0.16501,
                    0.0
                ],
                [
                    -0.00237,
                    2.57774,
                    -0.0
                ],
                [
                    -0.0,
                    3e-05,
                    2.67484
                ]
            ],
            [
                [
                    2.97044,
                    -0.0,
                    0.0
                ],
                [
                    -8e-05,
                    2.79474,
                    0.51251
                ],
                [
                    4e-05,
                    -0.05354,
                    2.64416
                ]
            ],
            [
                [
                    2.97044,
                    -0.0,
                    0.0
                ],
                [
                    -8e-05,
                    2.79474,
                    -0.51251
                ],
                [
                    4e-05,
                    0.05354,
                    2.64416
                ]
            ],
            [
                [
                    2.97059,
                    -0.0,
                    0.0
                ],
                [
                    8e-05,
                    2.79474,
                    0.51251
                ],
                [
                    -4e-05,
                    -0.05354,
                    2.64416
                ]
            ],
            [
                [
                    1.36998,
                    -6e-05,
                    0.0
                ],
                [
                    -0.0,
                    0.4625,
                    -0.0
                ],
                [
                    -0.0,
                    -7e-05,
                    0.38639
                ]
            ],
            [
                [
                    1.36998,
                    6e-05,
                    0.0
                ],
                [
                    -0.0,
                    0.46269,
                    -0.0
                ],
                [
                    -0.0,
                    7e-05,
                    0.38639
                ]
            ],
            [
                [
                    2.1522,
                    -0.0,
                    0.0
                ],
                [
                    -0.0,
                    1.36508,
                    -1.27606
                ],
                [
                    -0.0,
                    -1.37359,
                    0.80938
                ]
            ],
            [
                [
                    2.1522,
                    -0.0,
                    0.0
                ],
                [
                    -0.0,
                    1.36508,
                    1.27606
                ],
                [
                    -0.0,
                    1.37359,
                    0.80938
                ]
            ],
            [
                [
                    -2.87235,
                    -0.15999,
                    0.0
                ],
                [
                    0.03039,
                    -2.2357,
                    -0.0
                ],
                [
                    -0.00018,
                    4e-05,
                    -2.12464
                ]
            ],
            [
                [
                    -3.08926,
                    -0.0,
                    0.0
                ],
                [
                    -3e-05,
                    -1.59767,
                    0.17163
                ],
                [
                    7e-05,
                    0.04865,
                    -1.64871
                ]
            ],
            [
                [
                    -2.87245,
                    0.15955,
                    0.0
                ],
                [
                    -0.03039,
                    -2.2357,
                    -0.0
                ],
                [
                    0.00018,
                    4e-05,
                    -2.12464
                ]
            ],
            [
                [
                    -1.59781,
                    -0.00018,
                    -0.00033
                ],
                [
                    -0.0,
                    -2.45287,
                    -0.22696
                ],
                [
                    -0.0,
                    -0.67807,
                    -2.14351
                ]
            ],
            [
                [
                    -3.08926,
                    -0.0,
                    0.0
                ],
                [
                    -3e-05,
                    -1.59767,
                    -0.17163
                ],
                [
                    7e-05,
                    -0.04865,
                    -1.64871
                ]
            ],
            [
                [
                    -3.08952,
                    -0.0,
                    0.0
                ],
                [
                    3e-05,
                    -1.59767,
                    -0.17163
                ],
                [
                    -7e-05,
                    -0.04865,
                    -1.64871
                ]
            ],
            [
                [
                    -2.87235,
                    0.15999,
                    0.0
                ],
                [
                    -0.02997,
                    -2.23528,
                    -0.0
                ],
                [
                    -0.00018,
                    -4e-05,
                    -2.12464
                ]
            ],
            [
                [
                    -2.87245,
                    -0.15955,
                    0.0
                ],
                [
                    0.02997,
                    -2.23528,
                    -0.0
                ],
                [
                    0.00018,
                    -4e-05,
                    -2.12464
                ]
            ],
            [
                [
                    -1.59781,
                    -0.00018,
                    0.00033
                ],
                [
                    -0.0,
                    -2.45287,
                    0.22696
                ],
                [
                    -0.0,
                    0.67804,
                    -2.14355
                ]
            ],
            [
                [
                    -3.08952,
                    -0.0,
                    0.0
                ],
                [
                    3e-05,
                    -1.59767,
                    0.17163
                ],
                [
                    -7e-05,
                    0.04865,
                    -1.64871
                ]
            ],
            [
                [
                    -1.59781,
                    0.00018,
                    0.00033
                ],
                [
                    -0.0,
                    -2.45271,
                    -0.22671
                ],
                [
                    -0.0,
                    -0.67804,
                    -2.14355
                ]
            ],
            [
                [
                    -1.59781,
                    0.00018,
                    -0.00033
                ],
                [
                    -0.0,
                    -2.45271,
                    0.22671
                ],
                [
                    -0.0,
                    0.67807,
                    -2.14351
                ]
            ]
        ]
    },
    "band_gap": 2.1300999999999997,
    "is_direct": false,
    "formula": "Ba4AgAuO6"
}