{
    "mp_id": "mp-556695",
    "nelements": 4,
    "nsites": 24,
    "elements": [
        "B",
        "Na",
        "O",
        "Sr"
    ],
    "structure": {
        "@module": "pymatgen.core.structure",
        "@class": "Structure",
        "charge": null,
        "lattice": {
            "matrix": [
                [
                    5.29617497,
                    0.0,
                    -0.00229227
                ],
                [
                    0.0,
                    9.18979386,
                    0.0
                ],
                [
                    -1.10469621,
                    0.0,
                    5.89156351
                ]
            ],
            "a": 5.296175466065702,
            "b": 9.18979386,
            "c": 5.994236757815951,
            "alpha": 90.0,
            "beta": 100.64471735334617,
            "gamma": 90.0,
            "volume": 286.7235803889142
        },
        "sites": [
            {
                "species": [
                    {
                        "element": "Na",
                        "occu": 1
                    }
                ],
                "abc": [
                    0.2564868,
                    0.24133458,
                    0.03554554
                ],
                "xyz": [
                    1.3191319469749927,
                    2.2178150414896787,
                    0.20883086941020942
                ],
                "label": "Na",
                "properties": {}
            },
            {
                "species": [
                    {
                        "element": "Na",
                        "occu": 1
                    }
                ],
                "abc": [
                    0.7435132,
                    0.74133458,
                    0.46445446
                ],
                "xyz": [
                    3.4246949180250073,
                    6.812711971489678,
                    2.7346586155897907
                ],
                "label": "Na",
                "properties": {}
            },
            {
                "species": [
                    {
                        "element": "Na",
                        "occu": 1
                    }
                ],
                "abc": [
                    0.7435132,
                    0.75866542,
                    0.96445446
                ],
                "xyz": [
                    2.872346813025007,
                    6.971978818510322,
                    5.680440370589791
                ],
                "label": "Na",
                "properties": {}
            },
            {
                "species": [
                    {
                        "element": "Na",
                        "occu": 1
                    }
                ],
                "abc": [
                    0.2564868,
                    0.25866542,
                    0.53554554
                ],
                "xyz": [
                    0.7667838419749926,
                    2.377081888510321,
                    3.1546126244102095
                ],
                "label": "Na",
                "properties": {}
            },
            {
                "species": [
                    {
                        "element": "Sr",
                        "occu": 1
                    }
                ],
                "abc": [
                    0.75382581,
                    0.41430036,
                    0.78405806
                ],
                "xyz": [
                    3.1262474193600234,
                    3.807334904523789,
                    4.617599883727902
                ],
                "label": "Sr",
                "properties": {}
            },
            {
                "species": [
                    {
                        "element": "Sr",
                        "occu": 1
                    }
                ],
                "abc": [
                    0.24617419,
                    0.91430036,
                    0.71594194
                ],
                "xyz": [
                    0.5128832356399768,
                    8.40223183452379,
                    4.217453111272098
                ],
                "label": "Sr",
                "properties": {}
            },
            {
                "species": [
                    {
                        "element": "Sr",
                        "occu": 1
                    }
                ],
                "abc": [
                    0.24617419,
                    0.58569964,
                    0.21594194
                ],
                "xyz": [
                    1.0652313406399767,
                    5.38245895547621,
                    1.271671356272098
                ],
                "label": "Sr",
                "properties": {}
            },
            {
                "species": [
                    {
                        "element": "Sr",
                        "occu": 1
                    }
                ],
                "abc": [
                    0.75382581,
                    0.08569964,
                    0.28405806
                ],
                "xyz": [
                    3.6785955243600235,
                    0.7875620254762103,
                    1.671818128727902
                ],
                "label": "Sr",
                "properties": {}
            },
            {
                "species": [
                    {
                        "element": "B",
                        "occu": 1
                    }
                ],
                "abc": [
                    0.24780672,
                    0.9190778,
                    0.23829738
                ],
                "xyz": [
                    1.0491815353228686,
                    8.446135523302308,
                    1.4033761086265493
                ],
                "label": "B",
                "properties": {}
            },
            {
                "species": [
                    {
                        "element": "B",
                        "occu": 1
                    }
                ],
                "abc": [
                    0.24780672,
                    0.5809222,
                    0.73829738
                ],
                "xyz": [
                    0.49683343032286875,
                    5.338555266697693,
                    4.34915786362655
                ],
                "label": "B",
                "properties": {}
            },
            {
                "species": [
                    {
                        "element": "B",
                        "occu": 1
                    }
                ],
                "abc": [
                    0.75219328,
                    0.4190778,
                    0.26170262
                ],
                "xyz": [
                    3.6946453296771313,
                    3.851238593302308,
                    1.5401133763734507
                ],
                "label": "B",
                "properties": {}
            },
            {
                "species": [
                    {
                        "element": "B",
                        "occu": 1
                    }
                ],
                "abc": [
                    0.75219328,
                    0.0809222,
                    0.76170262
                ],
                "xyz": [
                    3.1422972246771312,
                    0.743658336697692,
                    4.485895131373451
                ],
                "label": "B",
                "properties": {}
            },
            {
                "species": [
                    {
                        "element": "O",
                        "occu": 1
                    }
                ],
                "abc": [
                    0.72684604,
                    0.93812289,
                    0.68679999
                ],
                "xyz": [
                    3.0907984581105805,
                    8.621155974447456,
                    4.044659632380255
                ],
                "label": "O",
                "properties": {}
            },
            {
                "species": [
                    {
                        "element": "O",
                        "occu": 1
                    }
                ],
                "abc": [
                    0.03788764,
                    0.65886221,
                    0.78203754
                ],
                "xyz": [
                    -0.6632543358753527,
                    6.054807892044031,
                    4.607336985413623
                ],
                "label": "O",
                "properties": {}
            },
            {
                "species": [
                    {
                        "element": "O",
                        "occu": 1
                    }
                ],
                "abc": [
                    0.27315396,
                    0.06187711,
                    0.31320001
                ],
                "xyz": [
                    1.100680301889419,
                    0.5686378855525446,
                    1.8446116076197456
                ],
                "label": "O",
                "properties": {}
            },
            {
                "species": [
                    {
                        "element": "O",
                        "occu": 1
                    }
                ],
                "abc": [
                    0.56884291,
                    0.14565806,
                    0.86662147
                ],
                "xyz": [
                    2.055338128390334,
                    1.3385675454475117,
                    5.104451488097254
                ],
                "label": "O",
                "properties": {}
            },
            {
                "species": [
                    {
                        "element": "O",
                        "occu": 1
                    }
                ],
                "abc": [
                    0.43115709,
                    0.64565806,
                    0.63337853
                ],
                "xyz": [
                    1.5837925266096662,
                    5.933464475447512,
                    3.730601506902746
                ],
                "label": "O",
                "properties": {}
            },
            {
                "species": [
                    {
                        "element": "O",
                        "occu": 1
                    }
                ],
                "abc": [
                    0.56884291,
                    0.35434194,
                    0.36662147
                ],
                "xyz": [
                    2.607686233390334,
                    3.2563293845524885,
                    2.158669733097254
                ],
                "label": "O",
                "properties": {}
            },
            {
                "species": [
                    {
                        "element": "O",
                        "occu": 1
                    }
                ],
                "abc": [
                    0.43115709,
                    0.85434194,
                    0.13337853
                ],
                "xyz": [
                    2.136140631609666,
                    7.851226314552488,
                    0.784819751902746
                ],
                "label": "O",
                "properties": {}
            },
            {
                "species": [
                    {
                        "element": "O",
                        "occu": 1
                    }
                ],
                "abc": [
                    0.72684604,
                    0.56187711,
                    0.18679999
                ],
                "xyz": [
                    3.6431465631105806,
                    5.163534815552544,
                    1.098877877380254
                ],
                "label": "O",
                "properties": {}
            },
            {
                "species": [
                    {
                        "element": "O",
                        "occu": 1
                    }
                ],
                "abc": [
                    0.96211236,
                    0.34113779,
                    0.21796246
                ],
                "xyz": [
                    4.854733095875353,
                    3.1349859679559695,
                    1.2819342545863774
                ],
                "label": "O",
                "properties": {}
            },
            {
                "species": [
                    {
                        "element": "O",
                        "occu": 1
                    }
                ],
                "abc": [
                    0.96211236,
                    0.15886221,
                    0.71796246
                ],
                "xyz": [
                    4.302384990875353,
                    1.4599109620440307,
                    4.227716009586377
                ],
                "label": "O",
                "properties": {}
            },
            {
                "species": [
                    {
                        "element": "O",
                        "occu": 1
                    }
                ],
                "abc": [
                    0.03788764,
                    0.84113779,
                    0.28203754
                ],
                "xyz": [
                    -0.11090623087535259,
                    7.729882897955969,
                    1.6615552304136225
                ],
                "label": "O",
                "properties": {}
            },
            {
                "species": [
                    {
                        "element": "O",
                        "occu": 1
                    }
                ],
                "abc": [
                    0.27315396,
                    0.43812289,
                    0.81320001
                ],
                "xyz": [
                    0.548332196889419,
                    4.026259044447455,
                    4.790393362619746
                ],
                "label": "O",
                "properties": {}
            }
        ]
    },
    "spacegroup": {
        "source": "spglib",
        "symbol": "P2_1/c",
        "number": 14,
        "point_group": "2/m",
        "crystal_system": "monoclinic",
        "hall": "-P 2ybc"
    },
    "dielectric": {
        "epsilon_ionic": [
            [
                6.71459801,
                0.0,
                0.82944671
            ],
            [
                0.0,
                7.6454051,
                -1e-08
            ],
            [
                0.82944671,
                -1e-08,
                5.72157585
            ]
        ],
        "epsilon_ionic_avg": 6.693859653333334,
        "epsilon_ionic_eig": [
            5.251388891679558,
            7.184784968320444,
            7.6454051
        ],
        "epsilon_electronic": [
            [
                3.00261388,
                0.0,
                -0.07941204
            ],
            [
                0.0,
                3.00350519,
                0.0
            ],
            [
                -0.07941096,
                0.0,
                2.88826066
            ]
        ],
        "epsilon_electronic_avg": 2.9647932433333337,
        "epsilon_electronic_eig": [
            3.043290992785853,
            2.847583547214147,
            3.00350519
        ]
    },
    "phonon": {
        "lowest_freq": -0.12454513954866495,
        "frequency": [
            -0.12454513954866495,
            -0.09711088805808606,
            -0.04389873168575493,
            2.824015753103085,
            2.911247963112124,
            3.0185242027772885,
            3.0318049509097813,
            3.2472194333400717,
            3.2545268539020964,
            3.3516394393656426,
            3.831529660901108,
            4.111893868500858,
            4.198604647926989,
            4.2983398103799235,
            4.422309449887359,
            4.593588941300531,
            4.628473202185727,
            4.89915397904455,
            5.118634101882568,
            5.244080575162448,
            5.415624229477716,
            5.4442791844875815,
            5.507974537756581,
            5.880210679669244,
            5.898624854788636,
            6.090243932559129,
            6.154943907957512,
            6.213231799841892,
            6.561894422570615,
            6.606887729663402,
            6.6939158756016806,
            6.744141923549154,
            6.761707008717665,
            7.214038237432677,
            7.353862355502895,
            7.560160721450399,
            7.666466753973971,
            7.667016776395064,
            7.722555462923969,
            7.9328704712025235,
            8.093175935907936,
            8.124009484930836,
            8.359151942910213,
            8.420541120888776,
            8.50907483204624,
            8.713283594820235,
            8.775274211187892,
            8.888282512574246,
            16.609975653479836,
            16.67369800991036,
            16.91963501735173,
            16.97776877908438,
            17.28921155365103,
            17.29352630908859,
            17.354957224946073,
            17.69464815513529,
            22.43504858573641,
            22.462984526790315,
            22.60584031822223,
            22.61478025722012,
            27.079036500091906,
            27.18084024131148,
            27.285524875760895,
            27.306924350464275,
            36.773293590560144,
            36.78529391395708,
            37.05482861585683,
            37.21246244646865,
            37.36380138994033,
            37.516321411410516,
            37.78399128354099,
            39.34221117649354
        ]
    },
    "born_effective_charge": {
        "avg_abs_trace": 1.7037525,
        "tensors": [
            [
                [
                    1.13524,
                    -0.0242,
                    0.0398
                ],
                [
                    -0.01976,
                    1.11498,
                    -0.00426
                ],
                [
                    0.01401,
                    0.00057,
                    1.00771
                ]
            ],
            [
                [
                    1.13524,
                    0.02419,
                    0.03979
                ],
                [
                    0.01976,
                    1.11498,
                    0.00426
                ],
                [
                    0.01401,
                    -0.00056,
                    1.00771
                ]
            ],
            [
                [
                    1.13524,
                    -0.02419,
                    0.03979
                ],
                [
                    -0.01976,
                    1.11498,
                    -0.00426
                ],
                [
                    0.01401,
                    0.00056,
                    1.00771
                ]
            ],
            [
                [
                    1.13524,
                    0.0242,
                    0.0398
                ],
                [
                    0.01976,
                    1.11498,
                    0.00426
                ],
                [
                    0.01401,
                    -0.00057,
                    1.00771
                ]
            ],
            [
                [
                    2.40747,
                    -0.01186,
                    0.00415
                ],
                [
                    -0.05027,
                    2.38736,
                    0.03739
                ],
                [
                    0.05572,
                    0.09772,
                    2.46931
                ]
            ],
            [
                [
                    2.40757,
                    0.01185,
                    0.00409
                ],
                [
                    0.05027,
                    2.38736,
                    -0.03739
                ],
                [
                    0.05568,
                    -0.09772,
                    2.46927
                ]
            ],
            [
                [
                    2.40757,
                    -0.01185,
                    0.00409
                ],
                [
                    -0.0502,
                    2.38726,
                    0.03729
                ],
                [
                    0.05568,
                    0.09772,
                    2.46927
                ]
            ],
            [
                [
                    2.40747,
                    0.01186,
                    0.00415
                ],
                [
                    0.0502,
                    2.38726,
                    -0.03729
                ],
                [
                    0.05572,
                    -0.09772,
                    2.46931
                ]
            ],
            [
                [
                    1.9902,
                    0.16671,
                    -0.68442
                ],
                [
                    0.15451,
                    1.99545,
                    0.54218
                ],
                [
                    -0.85811,
                    0.59677,
                    0.8261
                ]
            ],
            [
                [
                    1.9902,
                    -0.16671,
                    -0.68442
                ],
                [
                    -0.15451,
                    1.99547,
                    -0.54218
                ],
                [
                    -0.85811,
                    -0.59677,
                    0.8261
                ]
            ],
            [
                [
                    1.99017,
                    -0.16674,
                    -0.68436
                ],
                [
                    -0.15451,
                    1.99545,
                    -0.54218
                ],
                [
                    -0.85809,
                    -0.59673,
                    0.82606
                ]
            ],
            [
                [
                    1.99017,
                    0.16674,
                    -0.68436
                ],
                [
                    0.15451,
                    1.99547,
                    0.54218
                ],
                [
                    -0.85809,
                    0.59673,
                    0.82606
                ]
            ],
            [
                [
                    -1.74653,
                    -0.0542,
                    0.06082
                ],
                [
                    -0.08176,
                    -2.01798,
                    -0.28453
                ],
                [
                    0.11349,
                    -0.23737,
                    -1.33934
                ]
            ],
            [
                [
                    -1.95857,
                    0.19143,
                    0.21251
                ],
                [
                    0.16655,
                    -1.80888,
                    0.00713
                ],
                [
                    0.23508,
                    0.04146,
                    -1.32285
                ]
            ],
            [
                [
                    -1.74653,
                    -0.05416,
                    0.06088
                ],
                [
                    -0.08176,
                    -2.01817,
                    -0.28455
                ],
                [
                    0.11349,
                    -0.23729,
                    -1.33937
                ]
            ],
            [
                [
                    -1.82786,
                    0.11995,
                    0.367
                ],
                [
                    0.11364,
                    -1.67069,
                    -0.22042
                ],
                [
                    0.43977,
                    -0.23806,
                    -1.64089
                ]
            ],
            [
                [
                    -1.82777,
                    -0.11989,
                    0.36715
                ],
                [
                    -0.11364,
                    -1.67069,
                    0.22042
                ],
                [
                    0.43992,
                    0.23808,
                    -1.64089
                ]
            ],
            [
                [
                    -1.82786,
                    -0.11995,
                    0.367
                ],
                [
                    -0.11373,
                    -1.67075,
                    0.22046
                ],
                [
                    0.43977,
                    0.23806,
                    -1.64089
                ]
            ],
            [
                [
                    -1.82777,
                    0.11989,
                    0.36715
                ],
                [
                    0.11373,
                    -1.67075,
                    -0.22046
                ],
                [
                    0.43992,
                    -0.23808,
                    -1.64089
                ]
            ],
            [
                [
                    -1.74653,
                    0.0542,
                    0.06082
                ],
                [
                    0.08176,
                    -2.01817,
                    0.28455
                ],
                [
                    0.11349,
                    0.23737,
                    -1.33934
                ]
            ],
            [
                [
                    -1.95863,
                    0.19153,
                    0.2126
                ],
                [
                    0.16664,
                    -1.80901,
                    0.00715
                ],
                [
                    0.23501,
                    0.04148,
                    -1.32283
                ]
            ],
            [
                [
                    -1.95863,
                    -0.19153,
                    0.2126
                ],
                [
                    -0.16655,
                    -1.80888,
                    -0.00713
                ],
                [
                    0.23501,
                    -0.04148,
                    -1.32283
                ]
            ],
            [
                [
                    -1.95857,
                    -0.19143,
                    0.21251
                ],
                [
                    -0.16664,
                    -1.80901,
                    -0.00715
                ],
                [
                    0.23508,
                    -0.04146,
                    -1.32285
                ]
            ],
            [
                [
                    -1.74653,
                    0.05416,
                    0.06088
                ],
                [
                    0.08176,
                    -2.01798,
                    0.28453
                ],
                [
                    0.11349,
                    0.23729,
                    -1.33937
                ]
            ]
        ]
    },
    "band_gap": 3.9352,
    "is_direct": false,
    "formula": "NaSrBO3"
}