{
    "mp_id": "mp-546125",
    "nelements": 3,
    "nsites": 12,
    "elements": [
        "As",
        "O",
        "Sc"
    ],
    "structure": {
        "@module": "pymatgen.core.structure",
        "@class": "Structure",
        "charge": null,
        "lattice": {
            "matrix": [
                [
                    -3.35741612,
                    3.35741612,
                    3.05104848
                ],
                [
                    3.35741612,
                    -3.35741612,
                    3.05104848
                ],
                [
                    3.35741612,
                    3.35741612,
                    -3.05104848
                ]
            ],
            "a": 5.643880122130698,
            "b": 5.643880122130698,
            "c": 5.643880122130698,
            "alpha": 106.99223004882502,
            "beta": 106.99223004882502,
            "gamma": 114.55181360007212,
            "volume": 137.56863951997187
        },
        "sites": [
            {
                "species": [
                    {
                        "element": "Sc",
                        "occu": 1
                    }
                ],
                "abc": [
                    0.5,
                    0.5,
                    0.0
                ],
                "xyz": [
                    0.0,
                    0.0,
                    3.05104848
                ],
                "label": "Sc",
                "properties": {}
            },
            {
                "species": [
                    {
                        "element": "Sc",
                        "occu": 1
                    }
                ],
                "abc": [
                    0.25,
                    0.75,
                    0.5
                ],
                "xyz": [
                    3.35741612,
                    0.0,
                    1.52552424
                ],
                "label": "Sc",
                "properties": {}
            },
            {
                "species": [
                    {
                        "element": "As",
                        "occu": 1
                    }
                ],
                "abc": [
                    0.75,
                    0.25,
                    0.5
                ],
                "xyz": [
                    0.0,
                    3.35741612,
                    1.52552424
                ],
                "label": "As",
                "properties": {}
            },
            {
                "species": [
                    {
                        "element": "As",
                        "occu": 1
                    }
                ],
                "abc": [
                    0.0,
                    0.0,
                    0.0
                ],
                "xyz": [
                    0.0,
                    0.0,
                    0.0
                ],
                "label": "As",
                "properties": {}
            },
            {
                "species": [
                    {
                        "element": "O",
                        "occu": 1
                    }
                ],
                "abc": [
                    0.1262775,
                    0.43897291,
                    0.68730459
                ],
                "xyz": [
                    3.35741612,
                    1.2577188996319817,
                    -0.37239322036664646
                ],
                "label": "O",
                "properties": {}
            },
            {
                "species": [
                    {
                        "element": "O",
                        "occu": 1
                    }
                ],
                "abc": [
                    0.75166732,
                    0.43897291,
                    0.31269541
                ],
                "xyz": [
                    3.357416120008949e-06,
                    2.0996938629518986,
                    2.678652208584874
                ],
                "label": "O",
                "properties": {}
            },
            {
                "species": [
                    {
                        "element": "O",
                        "occu": 1
                    }
                ],
                "abc": [
                    0.18897291,
                    0.00166732,
                    0.81269541
                ],
                "xyz": [
                    2.099693862951898,
                    3.3574194774161197,
                    -1.8979205114151265
                ],
                "label": "O",
                "properties": {}
            },
            {
                "species": [
                    {
                        "element": "O",
                        "occu": 1
                    }
                ],
                "abc": [
                    0.6237225,
                    0.81102709,
                    0.81269541
                ],
                "xyz": [
                    3.35741612,
                    2.099697220368018,
                    1.8979174603666462
                ],
                "label": "O",
                "properties": {}
            },
            {
                "species": [
                    {
                        "element": "O",
                        "occu": 1
                    }
                ],
                "abc": [
                    0.18897291,
                    0.3762775,
                    0.18730459
                ],
                "xyz": [
                    1.2577188996319815,
                    -1.1102230246251565e-16,
                    1.1531310196333537
                ],
                "label": "O",
                "properties": {}
            },
            {
                "species": [
                    {
                        "element": "O",
                        "occu": 1
                    }
                ],
                "abc": [
                    0.56102709,
                    0.24833268,
                    0.68730459
                ],
                "xyz": [
                    1.2577222570481021,
                    3.3574127625838797,
                    0.3723962714151261
                ],
                "label": "O",
                "properties": {}
            },
            {
                "species": [
                    {
                        "element": "O",
                        "occu": 1
                    }
                ],
                "abc": [
                    0.99833268,
                    0.81102709,
                    0.18730459
                ],
                "xyz": [
                    -3.357416120008949e-06,
                    1.2577222570481015,
                    4.948968991415127
                ],
                "label": "O",
                "properties": {}
            },
            {
                "species": [
                    {
                        "element": "O",
                        "occu": 1
                    }
                ],
                "abc": [
                    0.56102709,
                    0.8737225,
                    0.31269541
                ],
                "xyz": [
                    2.0996972203680184,
                    0.0,
                    3.4234417003666464
                ],
                "label": "O",
                "properties": {}
            }
        ]
    },
    "spacegroup": {
        "source": "spglib",
        "symbol": "I4_1/amd",
        "number": 141,
        "point_group": "4/mmm",
        "crystal_system": "tetragonal",
        "hall": "I 4bw 2bw -1bw"
    },
    "dielectric": {
        "epsilon_ionic": [
            [
                8.27544932,
                0.0,
                -0.0
            ],
            [
                0.0,
                8.27545192,
                -0.0
            ],
            [
                -0.0,
                -0.0,
                9.9414946
            ]
        ],
        "epsilon_ionic_avg": 8.830798613333334,
        "epsilon_ionic_eig": [
            8.27544932,
            8.27545192,
            9.9414946
        ],
        "epsilon_electronic": [
            [
                4.04849037,
                0.0,
                0.0
            ],
            [
                0.0,
                4.04849037,
                0.0
            ],
            [
                0.0,
                0.0,
                4.8501381
            ]
        ],
        "epsilon_electronic_avg": 4.31570628,
        "epsilon_electronic_eig": [
            4.04849037,
            4.04849037,
            4.8501381
        ]
    },
    "phonon": {
        "lowest_freq": -0.0163264282292007,
        "frequency": [
            -0.0163264282292007,
            -0.0163264282292007,
            -0.007717769167434134,
            2.597272210663411,
            4.329892871794235,
            4.329892871794235,
            5.084442149042338,
            5.084442149042338,
            5.858358832690381,
            6.103739171734308,
            6.259663648535103,
            7.851267943195979,
            7.851267943195979,
            8.331528107203974,
            8.527323015984352,
            8.527323015984352,
            8.708083485190533,
            9.47312502264423,
            9.47312502264423,
            9.74815314022822,
            9.74815314022822,
            10.005934733308612,
            11.26829074579324,
            12.671471855902317,
            12.671471855902317,
            13.546701783414207,
            14.556074818711576,
            15.139647270009768,
            23.029758313102306,
            23.029758313102306,
            24.43012507087574,
            24.43012507087574,
            25.353203589483417,
            26.05016188185387,
            26.452170968986852,
            26.652661673870764
        ]
    },
    "born_effective_charge": {
        "avg_abs_trace": 2.6997222222222224,
        "tensors": [
            [
                [
                    4.33013,
                    -0.0,
                    3e-05
                ],
                [
                    -0.0,
                    4.33013,
                    2e-05
                ],
                [
                    -0.0,
                    0.0,
                    4.20279
                ]
            ],
            [
                [
                    4.33013,
                    -0.0,
                    -3e-05
                ],
                [
                    -0.0,
                    4.33013,
                    -2e-05
                ],
                [
                    -0.0,
                    0.0,
                    4.20279
                ]
            ],
            [
                [
                    3.45792,
                    -0.0,
                    -4e-05
                ],
                [
                    -0.0,
                    3.45792,
                    3e-05
                ],
                [
                    -0.0,
                    0.0,
                    4.51862
                ]
            ],
            [
                [
                    3.45792,
                    -0.0,
                    4e-05
                ],
                [
                    -0.0,
                    3.45792,
                    -3e-05
                ],
                [
                    -0.0,
                    0.0,
                    4.51862
                ]
            ],
            [
                [
                    -1.06476,
                    5e-05,
                    -2e-05
                ],
                [
                    0.0,
                    -2.82922,
                    -0.53305
                ],
                [
                    0.0,
                    -0.40437,
                    -2.18034
                ]
            ],
            [
                [
                    -1.06476,
                    -5e-05,
                    -2e-05
                ],
                [
                    0.0,
                    -2.82931,
                    0.53297
                ],
                [
                    -0.0,
                    0.40437,
                    -2.18034
                ]
            ],
            [
                [
                    -2.82929,
                    -0.0,
                    0.53302
                ],
                [
                    -1e-05,
                    -1.06476,
                    -3e-05
                ],
                [
                    0.40437,
                    0.0,
                    -2.18034
                ]
            ],
            [
                [
                    -1.06476,
                    -5e-05,
                    2e-05
                ],
                [
                    0.0,
                    -2.82931,
                    -0.53297
                ],
                [
                    -0.0,
                    -0.40428,
                    -2.18036
                ]
            ],
            [
                [
                    -2.82923,
                    -0.0,
                    -0.533
                ],
                [
                    1e-05,
                    -1.06476,
                    -3e-05
                ],
                [
                    -0.40437,
                    0.0,
                    -2.18034
                ]
            ],
            [
                [
                    -2.82923,
                    -0.0,
                    0.533
                ],
                [
                    1e-05,
                    -1.06476,
                    3e-05
                ],
                [
                    0.40428,
                    0.0,
                    -2.18036
                ]
            ],
            [
                [
                    -1.06476,
                    5e-05,
                    2e-05
                ],
                [
                    -0.0,
                    -2.82922,
                    0.53305
                ],
                [
                    -0.0,
                    0.40428,
                    -2.18036
                ]
            ],
            [
                [
                    -2.82929,
                    -0.0,
                    -0.53302
                ],
                [
                    -1e-05,
                    -1.06476,
                    3e-05
                ],
                [
                    -0.40428,
                    0.0,
                    -2.18036
                ]
            ]
        ]
    },
    "band_gap": 3.6104000000000003,
    "is_direct": false,
    "formula": "ScAsO4"
}