{
    "mp_id": "mp-555078",
    "nelements": 4,
    "nsites": 30,
    "elements": [
        "Ba",
        "O",
        "Sb",
        "Sr"
    ],
    "structure": {
        "@module": "pymatgen.core.structure",
        "@class": "Structure",
        "charge": null,
        "lattice": {
            "matrix": [
                [
                    6.07552965,
                    -0.00182394,
                    -0.00043663
                ],
                [
                    -3.00797968,
                    5.31294588,
                    0.00177563
                ],
                [
                    -0.55713324,
                    -0.5333128,
                    15.18445522
                ]
            ],
            "a": 6.0755299394729345,
            "b": 6.105353292968703,
            "c": 15.20402908172508,
            "alpha": 90.69790102442732,
            "beta": 92.1035159091576,
            "gamma": 119.53402269354477,
            "volume": 490.0588806971561
        },
        "sites": [
            {
                "species": [
                    {
                        "element": "Ba",
                        "occu": 1
                    }
                ],
                "abc": [
                    0.30890337,
                    0.64254709,
                    0.4080705
                ],
                "xyz": [
                    -0.28336664655663063,
                    3.1956252723564114,
                    6.1973342832639835
                ],
                "label": "Ba",
                "properties": {}
            },
            {
                "species": [
                    {
                        "element": "Ba",
                        "occu": 1
                    }
                ],
                "abc": [
                    0.69109663,
                    0.35745291,
                    0.5919295
                ],
                "xyz": [
                    2.7937833765566302,
                    1.5821838676435886,
                    8.988459936736016
                ],
                "label": "Ba",
                "properties": {}
            },
            {
                "species": [
                    {
                        "element": "Ba",
                        "occu": 1
                    }
                ],
                "abc": [
                    0.6512449,
                    0.32993092,
                    0.90116581
                ],
                "xyz": [
                    2.4621627686950553,
                    1.2711140290803358,
                    13.684013369918821
                ],
                "label": "Ba",
                "properties": {}
            },
            {
                "species": [
                    {
                        "element": "Ba",
                        "occu": 1
                    }
                ],
                "abc": [
                    0.97870316,
                    0.99742695,
                    0.25102933
                ],
                "xyz": [
                    2.806043285286389,
                    5.1636131538973915,
                    3.81308735034608
                ],
                "label": "Ba",
                "properties": {}
            },
            {
                "species": [
                    {
                        "element": "Ba",
                        "occu": 1
                    }
                ],
                "abc": [
                    0.02129684,
                    0.00257305,
                    0.74897067
                ],
                "xyz": [
                    -0.29562655528638876,
                    -0.3858040138973916,
                    11.37270686965392
                ],
                "label": "Ba",
                "properties": {}
            },
            {
                "species": [
                    {
                        "element": "Ba",
                        "occu": 1
                    }
                ],
                "abc": [
                    0.3487551,
                    0.67006908,
                    0.09883419
                ],
                "xyz": [
                    0.048253961304944866,
                    3.5066951109196642,
                    1.5017808500811793
                ],
                "label": "Ba",
                "properties": {}
            },
            {
                "species": [
                    {
                        "element": "Sr",
                        "occu": 1
                    }
                ],
                "abc": [
                    0.0,
                    0.0,
                    0.0
                ],
                "xyz": [
                    0.0,
                    0.0,
                    0.0
                ],
                "label": "Sr",
                "properties": {}
            },
            {
                "species": [
                    {
                        "element": "Sr",
                        "occu": 1
                    }
                ],
                "abc": [
                    0.0,
                    0.0,
                    0.5
                ],
                "xyz": [
                    -0.27856662,
                    -0.2666564,
                    7.59222761
                ],
                "label": "Sr",
                "properties": {}
            },
            {
                "species": [
                    {
                        "element": "Sb",
                        "occu": 1
                    }
                ],
                "abc": [
                    0.30064064,
                    0.6410045,
                    0.84427224
                ],
                "xyz": [
                    -0.5719495169868414,
                    2.9548126745708663,
                    12.820820939866785
                ],
                "label": "Sb",
                "properties": {}
            },
            {
                "species": [
                    {
                        "element": "Sb",
                        "occu": 1
                    }
                ],
                "abc": [
                    0.6378415,
                    0.30881821,
                    0.34312364
                ],
                "xyz": [
                    2.7551404594827082,
                    1.4565788226683727,
                    5.210415392647477
                ],
                "label": "Sb",
                "properties": {}
            },
            {
                "species": [
                    {
                        "element": "Sb",
                        "occu": 1
                    }
                ],
                "abc": [
                    0.3621585,
                    0.69118179,
                    0.65687636
                ],
                "xyz": [
                    -0.24472372948270882,
                    3.321230317331627,
                    9.975378827352523
                ],
                "label": "Sb",
                "properties": {}
            },
            {
                "species": [
                    {
                        "element": "Sb",
                        "occu": 1
                    }
                ],
                "abc": [
                    0.69935936,
                    0.3589955,
                    0.15572776
                ],
                "xyz": [
                    3.082366246986841,
                    1.8229964654291337,
                    2.3649732801332153
                ],
                "label": "Sb",
                "properties": {}
            },
            {
                "species": [
                    {
                        "element": "O",
                        "occu": 1
                    }
                ],
                "abc": [
                    0.1972371,
                    0.41001614,
                    0.57110717
                ],
                "xyz": [
                    -0.35318315647135073,
                    1.873455049177553,
                    8.672593166009623
                ],
                "label": "O",
                "properties": {}
            },
            {
                "species": [
                    {
                        "element": "O",
                        "occu": 1
                    }
                ],
                "abc": [
                    0.88110503,
                    0.20652272,
                    0.10402733
                ],
                "xyz": [
                    4.674006505899361,
                    1.0401578450031512,
                    1.5795803250892273
                ],
                "label": "O",
                "properties": {}
            },
            {
                "species": [
                    {
                        "element": "O",
                        "occu": 1
                    }
                ],
                "abc": [
                    0.27178773,
                    0.91306724,
                    0.59351345
                ],
                "xyz": [
                    -1.4258993636545665,
                    4.5340527865515545,
                    9.01368100289952
                ],
                "label": "O",
                "properties": {}
            },
            {
                "species": [
                    {
                        "element": "O",
                        "occu": 1
                    }
                ],
                "abc": [
                    0.8027629,
                    0.58998386,
                    0.42889283
                ],
                "xyz": [
                    2.86359988647135,
                    2.904354090822447,
                    6.513201053990377
                ],
                "label": "O",
                "properties": {}
            },
            {
                "species": [
                    {
                        "element": "O",
                        "occu": 1
                    }
                ],
                "abc": [
                    0.56999818,
                    0.74833079,
                    0.93530367
                ],
                "xyz": [
                    0.6909882687466994,
                    3.47599192602924,
                    14.203156574511972
                ],
                "label": "O",
                "properties": {}
            },
            {
                "species": [
                    {
                        "element": "O",
                        "occu": 1
                    }
                ],
                "abc": [
                    0.45366859,
                    0.49624747,
                    0.75452006
                ],
                "xyz": [
                    0.8432064581344894,
                    2.233313281054111,
                    11.457659130240417
                ],
                "label": "O",
                "properties": {}
            },
            {
                "species": [
                    {
                        "element": "O",
                        "occu": 1
                    }
                ],
                "abc": [
                    0.91464488,
                    0.69189888,
                    0.11025989
                ],
                "xyz": [
                    3.41430486624819,
                    3.615550035826595,
                    1.6750655572814659
                ],
                "label": "O",
                "properties": {}
            },
            {
                "species": [
                    {
                        "element": "O",
                        "occu": 1
                    }
                ],
                "abc": [
                    0.43000182,
                    0.25166921,
                    0.06469633
                ],
                "xyz": [
                    1.8194284612533007,
                    1.3018172139707598,
                    0.9826376454880283
                ],
                "label": "O",
                "properties": {}
            },
            {
                "species": [
                    {
                        "element": "O",
                        "occu": 1
                    }
                ],
                "abc": [
                    0.08535512,
                    0.30810112,
                    0.88974011
                ],
                "xyz": [
                    -0.9038881362481899,
                    1.1622591041734047,
                    13.510728662718533
                ],
                "label": "O",
                "properties": {}
            },
            {
                "species": [
                    {
                        "element": "O",
                        "occu": 1
                    }
                ],
                "abc": [
                    0.69714197,
                    0.82164542,
                    0.61131366
                ],
                "xyz": [
                    1.4234308214172868,
                    4.0380647041922595,
                    9.283619440803058
                ],
                "label": "O",
                "properties": {}
            },
            {
                "species": [
                    {
                        "element": "O",
                        "occu": 1
                    }
                ],
                "abc": [
                    0.11889497,
                    0.79347728,
                    0.89597267
                ],
                "xyz": [
                    -2.1635897758993607,
                    3.737651294996849,
                    13.606213894910773
                ],
                "label": "O",
                "properties": {}
            },
            {
                "species": [
                    {
                        "element": "O",
                        "occu": 1
                    }
                ],
                "abc": [
                    0.04842213,
                    0.545241,
                    0.73060036
                ],
                "xyz": [
                    -1.7529255078836918,
                    2.5071090818246797,
                    11.094715453858086
                ],
                "label": "O",
                "properties": {}
            },
            {
                "species": [
                    {
                        "element": "O",
                        "occu": 1
                    }
                ],
                "abc": [
                    0.54633141,
                    0.50375253,
                    0.24547994
                ],
                "xyz": [
                    1.6672102718655106,
                    2.544495858945889,
                    3.7281350897595824
                ],
                "label": "O",
                "properties": {}
            },
            {
                "species": [
                    {
                        "element": "O",
                        "occu": 1
                    }
                ],
                "abc": [
                    0.95157787,
                    0.454759,
                    0.26939964
                ],
                "xyz": [
                    4.263342237883692,
                    2.2707000581753203,
                    4.091078766141913
                ],
                "label": "O",
                "properties": {}
            },
            {
                "species": [
                    {
                        "element": "O",
                        "occu": 1
                    }
                ],
                "abc": [
                    0.72821227,
                    0.08693276,
                    0.40648655
                ],
                "xyz": [
                    3.9363160936545665,
                    0.24375635344844498,
                    6.17211321710048
                ],
                "label": "O",
                "properties": {}
            },
            {
                "species": [
                    {
                        "element": "O",
                        "occu": 1
                    }
                ],
                "abc": [
                    0.30285803,
                    0.17835458,
                    0.38868634
                ],
                "xyz": [
                    1.0869859085827134,
                    0.7397444358077403,
                    5.902174779196941
                ],
                "label": "O",
                "properties": {}
            },
            {
                "species": [
                    {
                        "element": "O",
                        "occu": 1
                    }
                ],
                "abc": [
                    0.5023008,
                    0.052926,
                    0.23392924
                ],
                "xyz": [
                    2.7622133156631024,
                    0.15551934913745596,
                    3.551962726823709
                ],
                "label": "O",
                "properties": {}
            },
            {
                "species": [
                    {
                        "element": "O",
                        "occu": 1
                    }
                ],
                "abc": [
                    0.4976992,
                    0.947074,
                    0.76607076
                ],
                "xyz": [
                    -0.2517965856631023,
                    4.622289790862544,
                    11.633831493176292
                ],
                "label": "O",
                "properties": {}
            }
        ]
    },
    "spacegroup": {
        "source": "spglib",
        "symbol": "P-1",
        "number": 2,
        "point_group": "-1",
        "crystal_system": "triclinic",
        "hall": "-P 1"
    },
    "dielectric": {
        "epsilon_ionic": [
            [
                18.43676462,
                -2.41631887,
                -3.69156224
            ],
            [
                -2.41631887,
                13.55802116,
                1.0059952
            ],
            [
                -3.69156224,
                1.0059952,
                15.16979691
            ]
        ],
        "epsilon_ionic_avg": 15.721527563333334,
        "epsilon_ionic_eig": [
            21.66030881255729,
            12.299089012307073,
            13.205184865135642
        ],
        "epsilon_electronic": [
            [
                3.82956779,
                -0.00748015,
                -0.00248434
            ],
            [
                -0.00747929,
                3.8195464,
                0.0235063
            ],
            [
                -0.00248315,
                0.02350685,
                3.93468859
            ]
        ],
        "epsilon_electronic_avg": 3.8612675933333356,
        "epsilon_electronic_eig": [
            3.832160065053512,
            3.81220274978472,
            3.939439965161774
        ]
    },
    "phonon": {
        "lowest_freq": -0.05134825665183791,
        "frequency": [
            -0.05134825665183791,
            -0.02897556428854738,
            -0.018898993393005915,
            0.9282000183316582,
            1.2341360338925773,
            1.3211189115168858,
            1.3551153906632156,
            1.5056717672790636,
            1.5756242810466097,
            1.6947426812779811,
            2.0716944556876054,
            2.1576597097123895,
            2.364929024716879,
            2.4127273884358305,
            2.4670123688934558,
            2.510250123823825,
            2.5599264562866586,
            2.5604969688494545,
            2.6622007720449092,
            2.67382892755729,
            2.7994758310023924,
            3.1913944926284934,
            3.233935640547789,
            3.289925103400286,
            3.398214487710047,
            3.6245883846868674,
            3.7560767630582745,
            3.9169625419468237,
            4.0814872410932095,
            4.499582725579376,
            4.541908076114724,
            4.845623933840031,
            4.906861239626503,
            4.972543792206307,
            4.984178221101394,
            5.038201188326398,
            5.3204204163277895,
            5.4778626650080335,
            5.6477200536221455,
            5.920197899617563,
            6.195088414373613,
            6.283415049779249,
            6.305022818900927,
            6.56110373039351,
            6.703348527503778,
            6.713953873426936,
            6.813523260516239,
            6.833601442383152,
            8.000898090049052,
            8.22126596984184,
            8.344918358043275,
            8.70406728412894,
            8.710203436895409,
            8.816714051048447,
            9.124161281435601,
            9.174991809621872,
            9.41414401185862,
            9.435199123231488,
            9.436677370368749,
            10.688410662129082,
            10.82281120366512,
            10.896356474506998,
            11.118021302749463,
            11.523291591146759,
            11.555158309190945,
            11.600851688864585,
            11.75718552357934,
            11.85614673622301,
            12.94329369876951,
            12.96151933446421,
            13.515444239132032,
            13.608663381153562,
            13.955795124925483,
            14.34352815745369,
            14.998554179656644,
            16.47860468813157,
            17.222797648534442,
            17.263924695765358,
            19.081220976305158,
            19.19559691264577,
            19.267644079724366,
            19.357548016374974,
            19.45676382456979,
            19.5891259664188,
            19.61269832198353,
            19.786814663559937,
            20.905662603719914,
            21.879942005413263,
            21.89460281588483,
            22.13599244652732
        ]
    },
    "born_effective_charge": {
        "avg_abs_trace": 2.544402333333333,
        "tensors": [
            [
                [
                    2.70808,
                    0.09121,
                    0.04776
                ],
                [
                    0.15213,
                    2.85032,
                    0.04706
                ],
                [
                    0.0288,
                    -0.00184,
                    2.65421
                ]
            ],
            [
                [
                    2.70801,
                    0.09117,
                    0.04785
                ],
                [
                    0.15211,
                    2.85034,
                    0.04705
                ],
                [
                    0.02885,
                    -0.00187,
                    2.65418
                ]
            ],
            [
                [
                    2.89284,
                    -0.05326,
                    -0.08837
                ],
                [
                    -0.0426,
                    2.69434,
                    0.06613
                ],
                [
                    -0.16539,
                    0.03291,
                    2.67024
                ]
            ],
            [
                [
                    2.65429,
                    -0.11452,
                    0.17031
                ],
                [
                    -0.08447,
                    2.74725,
                    0.26406
                ],
                [
                    0.07899,
                    0.17823,
                    2.43616
                ]
            ],
            [
                [
                    2.65433,
                    -0.11452,
                    0.1703
                ],
                [
                    -0.0845,
                    2.74729,
                    0.26409
                ],
                [
                    0.07896,
                    0.17821,
                    2.43615
                ]
            ],
            [
                [
                    2.89283,
                    -0.05323,
                    -0.08838
                ],
                [
                    -0.04257,
                    2.69435,
                    0.06612
                ],
                [
                    -0.16537,
                    0.03291,
                    2.67021
                ]
            ],
            [
                [
                    2.62871,
                    0.04107,
                    -0.1886
                ],
                [
                    -0.04902,
                    2.70916,
                    -0.04828
                ],
                [
                    0.08183,
                    0.17246,
                    2.97855
                ]
            ],
            [
                [
                    2.64002,
                    0.15056,
                    -0.01757
                ],
                [
                    -0.04646,
                    2.78486,
                    -0.13386
                ],
                [
                    0.11232,
                    0.10926,
                    2.87657
                ]
            ],
            [
                [
                    3.86951,
                    -0.02756,
                    -0.0097
                ],
                [
                    -0.03748,
                    3.79348,
                    -0.1327
                ],
                [
                    0.01349,
                    -0.09124,
                    4.59987
                ]
            ],
            [
                [
                    3.89571,
                    -0.01878,
                    -0.15568
                ],
                [
                    -0.09159,
                    3.79508,
                    -0.12908
                ],
                [
                    0.02197,
                    -0.05065,
                    4.67874
                ]
            ],
            [
                [
                    3.89568,
                    -0.01874,
                    -0.15564
                ],
                [
                    -0.09168,
                    3.79501,
                    -0.12908
                ],
                [
                    0.02196,
                    -0.05065,
                    4.67885
                ]
            ],
            [
                [
                    3.86953,
                    -0.02755,
                    -0.00973
                ],
                [
                    -0.0375,
                    3.79346,
                    -0.1327
                ],
                [
                    0.01345,
                    -0.09115,
                    4.5999
                ]
            ],
            [
                [
                    -1.80156,
                    -0.03867,
                    -0.00497
                ],
                [
                    -0.04377,
                    -2.319,
                    -0.46928
                ],
                [
                    -0.02149,
                    -0.51204,
                    -2.34858
                ]
            ],
            [
                [
                    -2.36492,
                    0.30589,
                    0.35095
                ],
                [
                    0.31911,
                    -2.01805,
                    -0.12416
                ],
                [
                    0.39996,
                    -0.13283,
                    -2.08801
                ]
            ],
            [
                [
                    -2.15419,
                    0.22053,
                    -0.30732
                ],
                [
                    0.26043,
                    -2.28703,
                    0.32343
                ],
                [
                    -0.34694,
                    0.33289,
                    -2.04261
                ]
            ],
            [
                [
                    -1.80158,
                    -0.03881,
                    -0.00504
                ],
                [
                    -0.04379,
                    -2.31898,
                    -0.46927
                ],
                [
                    -0.0216,
                    -0.51223,
                    -2.34876
                ]
            ],
            [
                [
                    -2.19113,
                    -0.1505,
                    -0.424
                ],
                [
                    -0.14586,
                    -1.79594,
                    -0.22574
                ],
                [
                    -0.42713,
                    -0.25584,
                    -2.37155
                ]
            ],
            [
                [
                    -1.94348,
                    0.26768,
                    0.06417
                ],
                [
                    0.26477,
                    -1.90845,
                    0.23657
                ],
                [
                    -0.00537,
                    0.16597,
                    -2.35075
                ]
            ],
            [
                [
                    -1.97714,
                    -0.03534,
                    0.14307
                ],
                [
                    -0.03131,
                    -2.53211,
                    0.31076
                ],
                [
                    0.15709,
                    0.32191,
                    -2.01708
                ]
            ],
            [
                [
                    -2.19108,
                    -0.15046,
                    -0.424
                ],
                [
                    -0.14584,
                    -1.79591,
                    -0.22569
                ],
                [
                    -0.42712,
                    -0.2558,
                    -2.37151
                ]
            ],
            [
                [
                    -1.97723,
                    -0.03533,
                    0.14307
                ],
                [
                    -0.0313,
                    -2.53206,
                    0.31073
                ],
                [
                    0.15708,
                    0.32204,
                    -2.01712
                ]
            ],
            [
                [
                    -2.48981,
                    -0.33466,
                    0.29197
                ],
                [
                    -0.30185,
                    -1.96091,
                    0.08568
                ],
                [
                    0.25447,
                    0.08735,
                    -2.06732
                ]
            ],
            [
                [
                    -2.36499,
                    0.30592,
                    0.35099
                ],
                [
                    0.31898,
                    -2.01797,
                    -0.12411
                ],
                [
                    0.39997,
                    -0.13283,
                    -2.088
                ]
            ],
            [
                [
                    -2.06199,
                    -0.1468,
                    -0.13576
                ],
                [
                    -0.12694,
                    -1.70654,
                    -0.03489
                ],
                [
                    -0.19785,
                    -0.07721,
                    -2.37467
                ]
            ],
            [
                [
                    -1.94347,
                    0.26771,
                    0.06411
                ],
                [
                    0.26476,
                    -1.90848,
                    0.23662
                ],
                [
                    -0.00553,
                    0.16599,
                    -2.35077
                ]
            ],
            [
                [
                    -2.06187,
                    -0.14671,
                    -0.13582
                ],
                [
                    -0.12692,
                    -1.70653,
                    -0.03487
                ],
                [
                    -0.19787,
                    -0.07717,
                    -2.37472
                ]
            ],
            [
                [
                    -2.15421,
                    0.22055,
                    -0.30733
                ],
                [
                    0.26037,
                    -2.28698,
                    0.32336
                ],
                [
                    -0.34705,
                    0.33297,
                    -2.0427
                ]
            ],
            [
                [
                    -2.48979,
                    -0.33466,
                    0.29195
                ],
                [
                    -0.30185,
                    -1.96095,
                    0.08566
                ],
                [
                    0.25463,
                    0.08738,
                    -2.06736
                ]
            ],
            [
                [
                    -1.67055,
                    -0.06115,
                    0.16071
                ],
                [
                    -0.04267,
                    -2.09954,
                    -0.12684
                ],
                [
                    0.11246,
                    -0.13861,
                    -2.30611
                ]
            ],
            [
                [
                    -1.67054,
                    -0.06103,
                    0.1607
                ],
                [
                    -0.04269,
                    -2.09952,
                    -0.12677
                ],
                [
                    0.11244,
                    -0.13852,
                    -2.306
                ]
            ]
        ]
    },
    "band_gap": 3.2884,
    "is_direct": false,
    "formula": "Ba3SrSb2O9"
}