{
    "mp_id": "mp-561441",
    "nelements": 3,
    "nsites": 32,
    "elements": [
        "Ge",
        "O",
        "Y"
    ],
    "structure": {
        "@module": "pymatgen.core.structure",
        "@class": "Structure",
        "charge": null,
        "lattice": {
            "matrix": [
                [
                    7.47038499,
                    -3.40448042,
                    5.622e-05
                ],
                [
                    7.47038499,
                    3.40448042,
                    5.622e-05
                ],
                [
                    -5.49111114,
                    0.0,
                    8.81873317
                ]
            ],
            "a": 8.209576044604336,
            "b": 8.209576044604336,
            "c": 10.38856853832569,
            "alpha": 118.74902969216538,
            "beta": 118.74902969216538,
            "gamma": 49.000379025587456,
            "volume": 448.5718930957114
        },
        "sites": [
            {
                "species": [
                    {
                        "element": "Y",
                        "occu": 1
                    }
                ],
                "abc": [
                    0.26798086,
                    0.00380874,
                    0.83631232
                ],
                "xyz": [
                    -2.561910948593141,
                    -0.8993688100498903,
                    7.375230476874966
                ],
                "label": "Y",
                "properties": {}
            },
            {
                "species": [
                    {
                        "element": "Y",
                        "occu": 1
                    }
                ],
                "abc": [
                    0.20699025,
                    0.72507074,
                    0.03753252
                ],
                "xyz": [
                    6.756759190776268,
                    1.7637948841890059,
                    0.3310416795465462
                ],
                "label": "Y",
                "properties": {}
            },
            {
                "species": [
                    {
                        "element": "Y",
                        "occu": 1
                    }
                ],
                "abc": [
                    0.00380874,
                    0.26798086,
                    0.33631232
                ],
                "xyz": [
                    0.183644621406859,
                    0.8993688100498903,
                    2.965863891874966
                ],
                "label": "Y",
                "properties": {}
            },
            {
                "species": [
                    {
                        "element": "Y",
                        "occu": 1
                    }
                ],
                "abc": [
                    0.73201914,
                    0.99619126,
                    0.16368768
                ],
                "xyz": [
                    12.01156978859314,
                    0.8993688100498907,
                    1.4436151331250338
                ],
                "label": "Y",
                "properties": {}
            },
            {
                "species": [
                    {
                        "element": "Y",
                        "occu": 1
                    }
                ],
                "abc": [
                    0.99619126,
                    0.73201914,
                    0.66368768
                ],
                "xyz": [
                    9.26601421859314,
                    -0.8993688100498907,
                    5.852981718125034
                ],
                "label": "Y",
                "properties": {}
            },
            {
                "species": [
                    {
                        "element": "Y",
                        "occu": 1
                    }
                ],
                "abc": [
                    0.72507074,
                    0.20699025,
                    0.53753252
                ],
                "xyz": [
                    4.011203620776268,
                    -1.7637948841890059,
                    4.740408264546546
                ],
                "label": "Y",
                "properties": {}
            },
            {
                "species": [
                    {
                        "element": "Y",
                        "occu": 1
                    }
                ],
                "abc": [
                    0.79300975,
                    0.27492926,
                    0.96246748
                ],
                "xyz": [
                    2.692899649223733,
                    -1.7637948841890059,
                    8.487803930453454
                ],
                "label": "Y",
                "properties": {}
            },
            {
                "species": [
                    {
                        "element": "Y",
                        "occu": 1
                    }
                ],
                "abc": [
                    0.27492926,
                    0.79300975,
                    0.46246748
                ],
                "xyz": [
                    5.438455219223734,
                    1.7637948841890059,
                    4.0784373454534535
                ],
                "label": "Y",
                "properties": {}
            },
            {
                "species": [
                    {
                        "element": "Ge",
                        "occu": 1
                    }
                ],
                "abc": [
                    0.59035817,
                    0.7813596,
                    0.30954834
                ],
                "xyz": [
                    8.547495501381764,
                    0.6502606286270005,
                    2.729901331649467
                ],
                "label": "Ge",
                "properties": {}
            },
            {
                "species": [
                    {
                        "element": "Ge",
                        "occu": 1
                    }
                ],
                "abc": [
                    0.7813596,
                    0.59035817,
                    0.80954834
                ],
                "xyz": [
                    5.801939931381765,
                    -0.6502606286270005,
                    7.139267916649467
                ],
                "label": "Ge",
                "properties": {}
            },
            {
                "species": [
                    {
                        "element": "Ge",
                        "occu": 1
                    }
                ],
                "abc": [
                    0.2186404,
                    0.40964183,
                    0.19045166
                ],
                "xyz": [
                    3.647718908618235,
                    0.6502606286270006,
                    1.6795776933505329
                ],
                "label": "Ge",
                "properties": {}
            },
            {
                "species": [
                    {
                        "element": "Ge",
                        "occu": 1
                    }
                ],
                "abc": [
                    0.40964183,
                    0.2186404,
                    0.69045166
                ],
                "xyz": [
                    0.9021633386182351,
                    -0.6502606286270006,
                    6.088944278350533
                ],
                "label": "Ge",
                "properties": {}
            },
            {
                "species": [
                    {
                        "element": "O",
                        "occu": 1
                    }
                ],
                "abc": [
                    0.08131641,
                    0.88456053,
                    0.60205332
                ],
                "xyz": [
                    3.9095309024371465,
                    2.7346288790201303,
                    5.309401884794191
                ],
                "label": "O",
                "properties": {}
            },
            {
                "species": [
                    {
                        "element": "O",
                        "occu": 1
                    }
                ],
                "abc": [
                    0.68698224,
                    0.0835895,
                    0.67900242
                ],
                "xyz": [
                    2.0279898076652234,
                    -2.0542387689001504,
                    5.987984485307495
                ],
                "label": "O",
                "properties": {}
            },
            {
                "species": [
                    {
                        "element": "O",
                        "occu": 1
                    }
                ],
                "abc": [
                    0.9164105,
                    0.31301776,
                    0.82099758
                ],
                "xyz": [
                    4.676113462334776,
                    -2.0542387689001504,
                    7.240227709692506
                ],
                "label": "O",
                "properties": {}
            },
            {
                "species": [
                    {
                        "element": "O",
                        "occu": 1
                    }
                ],
                "abc": [
                    0.41684785,
                    0.41942296,
                    0.36657451
                ],
                "xyz": [
                    4.234363531098101,
                    0.008766911574346281,
                    3.232769805758435
                ],
                "label": "O",
                "properties": {}
            },
            {
                "species": [
                    {
                        "element": "O",
                        "occu": 1
                    }
                ],
                "abc": [
                    0.31301776,
                    0.9164105,
                    0.32099758
                ],
                "xyz": [
                    7.421669032334776,
                    2.0542387689001504,
                    2.8308611246925057
                ],
                "label": "O",
                "properties": {}
            },
            {
                "species": [
                    {
                        "element": "O",
                        "occu": 1
                    }
                ],
                "abc": [
                    0.11543947,
                    0.91868359,
                    0.89794668
                ],
                "xyz": [
                    2.7945723675628544,
                    2.7346288790201303,
                    7.918810310205808
                ],
                "label": "O",
                "properties": {}
            },
            {
                "species": [
                    {
                        "element": "O",
                        "occu": 1
                    }
                ],
                "abc": [
                    0.0835895,
                    0.68698224,
                    0.17900242
                ],
                "xyz": [
                    4.773545377665224,
                    2.0542387689001504,
                    1.578617900307494
                ],
                "label": "O",
                "properties": {}
            },
            {
                "species": [
                    {
                        "element": "O",
                        "occu": 1
                    }
                ],
                "abc": [
                    0.88456053,
                    0.08131641,
                    0.10205332
                ],
                "xyz": [
                    6.655086472437146,
                    -2.7346288790201303,
                    0.9000352997941913
                ],
                "label": "O",
                "properties": {}
            },
            {
                "species": [
                    {
                        "element": "O",
                        "occu": 1
                    }
                ],
                "abc": [
                    0.63102166,
                    0.77947761,
                    0.95171279
                ],
                "xyz": [
                    5.311011871764478,
                    0.505415375007499,
                    8.392980447755203
                ],
                "label": "O",
                "properties": {}
            },
            {
                "species": [
                    {
                        "element": "O",
                        "occu": 1
                    }
                ],
                "abc": [
                    0.6496488,
                    0.96246195,
                    0.32546005
                ],
                "xyz": [
                    10.255950642837686,
                    1.0649662442935228,
                    2.870235971311223
                ],
                "label": "O",
                "properties": {}
            },
            {
                "species": [
                    {
                        "element": "O",
                        "occu": 1
                    }
                ],
                "abc": [
                    0.58057704,
                    0.58315215,
                    0.13342549
                ],
                "xyz": [
                    7.960850878901899,
                    0.008766911574346281,
                    1.1767092192415651
                ],
                "label": "O",
                "properties": {}
            },
            {
                "species": [
                    {
                        "element": "O",
                        "occu": 1
                    }
                ],
                "abc": [
                    0.22052239,
                    0.36897834,
                    0.54828721
                ],
                "xyz": [
                    1.3930913982355233,
                    0.505415375007499,
                    4.835231747244796
                ],
                "label": "O",
                "properties": {}
            },
            {
                "species": [
                    {
                        "element": "O",
                        "occu": 1
                    }
                ],
                "abc": [
                    0.41942296,
                    0.41684785,
                    0.86657451
                ],
                "xyz": [
                    1.4888079610981002,
                    -0.008766911574346281,
                    7.642136390758434
                ],
                "label": "O",
                "properties": {}
            },
            {
                "species": [
                    {
                        "element": "O",
                        "occu": 1
                    }
                ],
                "abc": [
                    0.77947761,
                    0.63102166,
                    0.45171279
                ],
                "xyz": [
                    8.056567441764479,
                    -0.505415375007499,
                    3.9836138627552033
                ],
                "label": "O",
                "properties": {}
            },
            {
                "species": [
                    {
                        "element": "O",
                        "occu": 1
                    }
                ],
                "abc": [
                    0.3503512,
                    0.03753805,
                    0.67453995
                ],
                "xyz": [
                    -0.8062918028376855,
                    -1.0649662442935228,
                    5.948609638688776
                ],
                "label": "O",
                "properties": {}
            },
            {
                "species": [
                    {
                        "element": "O",
                        "occu": 1
                    }
                ],
                "abc": [
                    0.91868359,
                    0.11543947,
                    0.39794668
                ],
                "xyz": [
                    5.540127937562854,
                    -2.7346288790201303,
                    3.509443725205809
                ],
                "label": "O",
                "properties": {}
            },
            {
                "species": [
                    {
                        "element": "O",
                        "occu": 1
                    }
                ],
                "abc": [
                    0.36897834,
                    0.22052239,
                    0.04828721
                ],
                "xyz": [
                    4.138646968235523,
                    -0.505415375007499,
                    0.42586516224479626
                ],
                "label": "O",
                "properties": {}
            },
            {
                "species": [
                    {
                        "element": "O",
                        "occu": 1
                    }
                ],
                "abc": [
                    0.03753805,
                    0.3503512,
                    0.17453995
                ],
                "xyz": [
                    1.9392637671623145,
                    1.0649662442935228,
                    1.5392430536887765
                ],
                "label": "O",
                "properties": {}
            },
            {
                "species": [
                    {
                        "element": "O",
                        "occu": 1
                    }
                ],
                "abc": [
                    0.58315215,
                    0.58057704,
                    0.63342549
                ],
                "xyz": [
                    5.215295308901898,
                    -0.008766911574346281,
                    5.586075804241565
                ],
                "label": "O",
                "properties": {}
            },
            {
                "species": [
                    {
                        "element": "O",
                        "occu": 1
                    }
                ],
                "abc": [
                    0.96246195,
                    0.6496488,
                    0.82546005
                ],
                "xyz": [
                    7.510395072837686,
                    -1.0649662442935228,
                    7.279602556311223
                ],
                "label": "O",
                "properties": {}
            }
        ]
    },
    "spacegroup": {
        "source": "spglib",
        "symbol": "C2/c",
        "number": 15,
        "point_group": "2/m",
        "crystal_system": "monoclinic",
        "hall": "-C 2yc"
    },
    "dielectric": {
        "epsilon_ionic": [
            [
                6.83174752,
                -1e-08,
                0.07469313
            ],
            [
                -1e-08,
                8.97810022,
                -0.0
            ],
            [
                0.07469313,
                -0.0,
                9.54232265
            ]
        ],
        "epsilon_ionic_avg": 8.450723463333333,
        "epsilon_ionic_eig": [
            6.829690822289604,
            9.544379347710395,
            8.97810022
        ],
        "epsilon_electronic": [
            [
                3.82287939,
                0.0,
                0.03716451
            ],
            [
                0.0,
                3.72031069,
                0.0
            ],
            [
                0.03716161,
                0.0,
                3.78452982
            ]
        ],
        "epsilon_electronic_avg": 3.7759066333333333,
        "epsilon_electronic_eig": [
            3.845522847505602,
            3.761886362494398,
            3.72031069
        ]
    },
    "phonon": {
        "lowest_freq": -0.02920481699864074,
        "frequency": [
            -0.02920481699864074,
            -0.023152686341863345,
            -0.012751907724641532,
            1.7364561677825994,
            2.244763906731009,
            2.3853091062348413,
            2.8409278755246525,
            2.9912675319314195,
            3.0128240315599237,
            3.210040280370911,
            3.238916178424657,
            3.618250353953125,
            3.7255073658874487,
            3.7915512927830557,
            4.069478154433297,
            4.143694094392952,
            4.30000589111693,
            4.44340321008189,
            4.534346047995077,
            4.621624591063789,
            5.053728212628354,
            5.068615615466457,
            5.112455139496161,
            5.122697751823185,
            5.227627286957927,
            5.395575492452212,
            5.498345617000255,
            5.7300476331516625,
            5.809208937315854,
            5.895108057434313,
            6.017553539637112,
            6.082864170188727,
            6.139428229528122,
            6.155897082766517,
            6.5987338479192195,
            6.704704552787098,
            6.827955100867402,
            7.297843359124763,
            7.3134478735359,
            7.758075064938501,
            7.952685005539824,
            8.05081386056119,
            8.177322949730167,
            8.20307341665324,
            8.321738184169229,
            8.40786727451675,
            8.44895637278025,
            8.567796039226923,
            8.577335340170684,
            9.194186141286583,
            9.335320070468239,
            9.398827870658584,
            9.498473969204303,
            9.830071981495305,
            9.883554979820754,
            10.165534712704824,
            10.302903784408581,
            10.645672883008412,
            10.672863553467206,
            10.712452600902866,
            10.881861463011735,
            11.259864152344282,
            11.280389347164773,
            11.568158731851646,
            11.594554641972623,
            11.784479205080764,
            12.093486572343899,
            12.301355822375733,
            12.987693856421375,
            13.03344688022041,
            13.033761324772478,
            13.073258339022559,
            13.27847500365948,
            13.948729918429068,
            14.084089292862606,
            14.582829327628714,
            15.537498385356978,
            16.23277512514522,
            16.61015148553239,
            17.118012960719838,
            20.868528568310957,
            21.381461626557524,
            21.404551908021926,
            21.5812843622523,
            21.616107090808196,
            22.05380077890505,
            22.95165930500086,
            23.0178025594943,
            23.252174110893126,
            23.318766212965723,
            23.533430545656703,
            23.694233448985322,
            23.71003362945271,
            23.962199481143035,
            24.04027823777252,
            24.255578510457692
        ]
    },
    "born_effective_charge": {
        "avg_abs_trace": 2.7100754166666667,
        "tensors": [
            [
                [
                    3.94673,
                    -0.48045,
                    -0.07578
                ],
                [
                    -0.44077,
                    3.69624,
                    -0.18928
                ],
                [
                    0.23241,
                    -0.08116,
                    3.74059
                ]
            ],
            [
                [
                    3.4561,
                    -0.1689,
                    -0.0826
                ],
                [
                    -0.10457,
                    3.75038,
                    -0.11423
                ],
                [
                    -0.25118,
                    0.0094,
                    3.98273
                ]
            ],
            [
                [
                    3.94673,
                    0.48045,
                    -0.07578
                ],
                [
                    0.44101,
                    3.69645,
                    0.18895
                ],
                [
                    0.23241,
                    0.08116,
                    3.74059
                ]
            ],
            [
                [
                    3.94661,
                    -0.48063,
                    -0.07579
                ],
                [
                    -0.44101,
                    3.69645,
                    -0.18895
                ],
                [
                    0.23262,
                    -0.08121,
                    3.74082
                ]
            ],
            [
                [
                    3.94661,
                    0.48063,
                    -0.07579
                ],
                [
                    0.44077,
                    3.69624,
                    0.18928
                ],
                [
                    0.23262,
                    0.08121,
                    3.74082
                ]
            ],
            [
                [
                    3.4561,
                    0.1689,
                    -0.0826
                ],
                [
                    0.10483,
                    3.74962,
                    0.11396
                ],
                [
                    -0.25118,
                    -0.0094,
                    3.98273
                ]
            ],
            [
                [
                    3.45597,
                    -0.16873,
                    -0.08252
                ],
                [
                    -0.10483,
                    3.74962,
                    -0.11396
                ],
                [
                    -0.25117,
                    0.00941,
                    3.98262
                ]
            ],
            [
                [
                    3.45597,
                    0.16873,
                    -0.08252
                ],
                [
                    0.10457,
                    3.75038,
                    0.11423
                ],
                [
                    -0.25117,
                    -0.00941,
                    3.98262
                ]
            ],
            [
                [
                    3.55165,
                    -0.13669,
                    0.28874
                ],
                [
                    -0.04399,
                    3.22789,
                    -0.09589
                ],
                [
                    0.16561,
                    -0.00295,
                    3.16893
                ]
            ],
            [
                [
                    3.55165,
                    0.13669,
                    0.28874
                ],
                [
                    0.04394,
                    3.22789,
                    0.09587
                ],
                [
                    0.16561,
                    0.00295,
                    3.16893
                ]
            ],
            [
                [
                    3.55163,
                    0.13667,
                    0.28874
                ],
                [
                    0.04399,
                    3.22789,
                    0.09589
                ],
                [
                    0.16561,
                    0.00295,
                    3.16896
                ]
            ],
            [
                [
                    3.55163,
                    -0.13667,
                    0.28874
                ],
                [
                    -0.04394,
                    3.22789,
                    -0.09587
                ],
                [
                    0.16561,
                    -0.00295,
                    3.16896
                ]
            ],
            [
                [
                    -2.91676,
                    0.22113,
                    0.41996
                ],
                [
                    0.29967,
                    -2.08144,
                    -0.0522
                ],
                [
                    0.43646,
                    0.09388,
                    -2.33247
                ]
            ],
            [
                [
                    -2.05989,
                    0.37794,
                    0.18485
                ],
                [
                    0.46463,
                    -2.53422,
                    -0.14062
                ],
                [
                    0.22403,
                    -0.16492,
                    -1.84735
                ]
            ],
            [
                [
                    -2.05982,
                    -0.37792,
                    0.18484
                ],
                [
                    -0.46463,
                    -2.53422,
                    0.14062
                ],
                [
                    0.22397,
                    0.16488,
                    -1.84735
                ]
            ],
            [
                [
                    -1.46244,
                    -0.33118,
                    -0.39147
                ],
                [
                    -0.25943,
                    -2.37245,
                    0.35769
                ],
                [
                    -0.43755,
                    0.25265,
                    -2.34278
                ]
            ],
            [
                [
                    -2.05982,
                    0.37792,
                    0.18484
                ],
                [
                    0.4646,
                    -2.53425,
                    -0.14058
                ],
                [
                    0.22397,
                    -0.16488,
                    -1.84735
                ]
            ],
            [
                [
                    -2.91678,
                    -0.22116,
                    0.41998
                ],
                [
                    -0.29967,
                    -2.08144,
                    0.0522
                ],
                [
                    0.43644,
                    -0.09385,
                    -2.33247
                ]
            ],
            [
                [
                    -2.05989,
                    -0.37794,
                    0.18485
                ],
                [
                    -0.4646,
                    -2.53425,
                    0.14058
                ],
                [
                    0.22403,
                    0.16492,
                    -1.84735
                ]
            ],
            [
                [
                    -2.91676,
                    -0.22113,
                    0.41996
                ],
                [
                    -0.29957,
                    -2.08153,
                    0.0523
                ],
                [
                    0.43646,
                    -0.09388,
                    -2.33247
                ]
            ],
            [
                [
                    -1.48607,
                    0.22042,
                    -0.34833
                ],
                [
                    0.23303,
                    -2.35345,
                    -0.21033
                ],
                [
                    -0.32982,
                    -0.34156,
                    -2.41855
                ]
            ],
            [
                [
                    -3.02924,
                    -0.27903,
                    0.00459
                ],
                [
                    -0.3395,
                    -1.33259,
                    -0.19166
                ],
                [
                    -0.03996,
                    -0.15392,
                    -1.95124
                ]
            ],
            [
                [
                    -1.46244,
                    0.3312,
                    -0.3915
                ],
                [
                    0.25943,
                    -2.37245,
                    -0.35769
                ],
                [
                    -0.43756,
                    -0.25265,
                    -2.34269
                ]
            ],
            [
                [
                    -1.48605,
                    -0.2204,
                    -0.34836
                ],
                [
                    -0.23303,
                    -2.35345,
                    0.21033
                ],
                [
                    -0.3299,
                    0.34157,
                    -2.4185
                ]
            ],
            [
                [
                    -1.46244,
                    0.33118,
                    -0.39147
                ],
                [
                    0.25942,
                    -2.37251,
                    -0.35763
                ],
                [
                    -0.43755,
                    -0.25265,
                    -2.34278
                ]
            ],
            [
                [
                    -1.48607,
                    -0.22042,
                    -0.34833
                ],
                [
                    -0.23307,
                    -2.35344,
                    0.21046
                ],
                [
                    -0.32982,
                    0.34156,
                    -2.41855
                ]
            ],
            [
                [
                    -3.0292,
                    -0.27901,
                    0.00464
                ],
                [
                    -0.33945,
                    -1.33258,
                    -0.19166
                ],
                [
                    -0.04001,
                    -0.15393,
                    -1.95126
                ]
            ],
            [
                [
                    -2.91678,
                    0.22116,
                    0.41998
                ],
                [
                    0.29957,
                    -2.08153,
                    -0.0523
                ],
                [
                    0.43644,
                    0.09385,
                    -2.33247
                ]
            ],
            [
                [
                    -1.48605,
                    0.2204,
                    -0.34836
                ],
                [
                    0.23307,
                    -2.35344,
                    -0.21046
                ],
                [
                    -0.3299,
                    -0.34157,
                    -2.4185
                ]
            ],
            [
                [
                    -3.0292,
                    0.27901,
                    0.00464
                ],
                [
                    0.3395,
                    -1.33259,
                    0.19166
                ],
                [
                    -0.04001,
                    0.15393,
                    -1.95126
                ]
            ],
            [
                [
                    -1.46244,
                    -0.3312,
                    -0.3915
                ],
                [
                    -0.25942,
                    -2.37251,
                    0.35763
                ],
                [
                    -0.43756,
                    0.25265,
                    -2.34269
                ]
            ],
            [
                [
                    -3.02924,
                    0.27903,
                    0.00459
                ],
                [
                    0.33945,
                    -1.33258,
                    0.19166
                ],
                [
                    -0.03996,
                    0.15392,
                    -1.95124
                ]
            ]
        ]
    },
    "band_gap": 3.9696999999999996,
    "is_direct": false,
    "formula": "Y2GeO5"
}