{
    "mp_id": "mp-560647",
    "nelements": 3,
    "nsites": 28,
    "elements": [
        "Ca",
        "Ge",
        "O"
    ],
    "structure": {
        "@module": "pymatgen.core.structure",
        "@class": "Structure",
        "charge": null,
        "lattice": {
            "matrix": [
                [
                    11.37047204,
                    0.0,
                    0.0
                ],
                [
                    0.0,
                    6.75145366,
                    0.0
                ],
                [
                    0.0,
                    0.0,
                    5.25074117
                ]
            ],
            "a": 11.37047204,
            "b": 6.75145366,
            "c": 5.25074117,
            "alpha": 90.0,
            "beta": 90.0,
            "gamma": 90.0,
            "volume": 403.0847766763185
        },
        "sites": [
            {
                "species": [
                    {
                        "element": "Ca",
                        "occu": 1
                    }
                ],
                "abc": [
                    0.7207701,
                    0.75,
                    0.0070072
                ],
                "xyz": [
                    8.195496269318003,
                    5.063590245,
                    0.036792993526424005
                ],
                "label": "Ca",
                "properties": {}
            },
            {
                "species": [
                    {
                        "element": "Ca",
                        "occu": 1
                    }
                ],
                "abc": [
                    0.2792299,
                    0.25,
                    0.9929928
                ],
                "xyz": [
                    3.1749757706819954,
                    1.687863415,
                    5.2139481764735764
                ],
                "label": "Ca",
                "properties": {}
            },
            {
                "species": [
                    {
                        "element": "Ca",
                        "occu": 1
                    }
                ],
                "abc": [
                    0.7792299,
                    0.25,
                    0.5070072
                ],
                "xyz": [
                    8.860211790681996,
                    1.687863415,
                    2.662163578526424
                ],
                "label": "Ca",
                "properties": {}
            },
            {
                "species": [
                    {
                        "element": "Ca",
                        "occu": 1
                    }
                ],
                "abc": [
                    0.2207701,
                    0.75,
                    0.4929928
                ],
                "xyz": [
                    2.5102602493180037,
                    5.063590245,
                    2.5885775914735762
                ],
                "label": "Ca",
                "properties": {}
            },
            {
                "species": [
                    {
                        "element": "Ca",
                        "occu": 1
                    }
                ],
                "abc": [
                    0.5,
                    0.5,
                    0.5
                ],
                "xyz": [
                    5.68523602,
                    3.37572683,
                    2.625370585
                ],
                "label": "Ca",
                "properties": {}
            },
            {
                "species": [
                    {
                        "element": "Ca",
                        "occu": 1
                    }
                ],
                "abc": [
                    0.0,
                    0.0,
                    0.0
                ],
                "xyz": [
                    0.0,
                    0.0,
                    0.0
                ],
                "label": "Ca",
                "properties": {}
            },
            {
                "species": [
                    {
                        "element": "Ca",
                        "occu": 1
                    }
                ],
                "abc": [
                    0.0,
                    0.5,
                    0.0
                ],
                "xyz": [
                    0.0,
                    3.37572683,
                    0.0
                ],
                "label": "Ca",
                "properties": {}
            },
            {
                "species": [
                    {
                        "element": "Ca",
                        "occu": 1
                    }
                ],
                "abc": [
                    0.5,
                    0.0,
                    0.5
                ],
                "xyz": [
                    5.68523602,
                    0.0,
                    2.625370585
                ],
                "label": "Ca",
                "properties": {}
            },
            {
                "species": [
                    {
                        "element": "Ge",
                        "occu": 1
                    }
                ],
                "abc": [
                    0.09586573,
                    0.25,
                    0.4309955
                ],
                "xyz": [
                    1.090038602559189,
                    1.687863415,
                    2.263045815934735
                ],
                "label": "Ge",
                "properties": {}
            },
            {
                "species": [
                    {
                        "element": "Ge",
                        "occu": 1
                    }
                ],
                "abc": [
                    0.40413427,
                    0.75,
                    0.9309955
                ],
                "xyz": [
                    4.595197417440811,
                    5.063590245,
                    4.8884164009347355
                ],
                "label": "Ge",
                "properties": {}
            },
            {
                "species": [
                    {
                        "element": "Ge",
                        "occu": 1
                    }
                ],
                "abc": [
                    0.90413427,
                    0.75,
                    0.5690045
                ],
                "xyz": [
                    10.280433437440811,
                    5.063590245,
                    2.9876953540652655
                ],
                "label": "Ge",
                "properties": {}
            },
            {
                "species": [
                    {
                        "element": "Ge",
                        "occu": 1
                    }
                ],
                "abc": [
                    0.59586573,
                    0.25,
                    0.0690045
                ],
                "xyz": [
                    6.775274622559189,
                    1.687863415,
                    0.362324769065265
                ],
                "label": "Ge",
                "properties": {}
            },
            {
                "species": [
                    {
                        "element": "O",
                        "occu": 1
                    }
                ],
                "abc": [
                    0.5485531,
                    0.75,
                    0.784192
                ],
                "xyz": [
                    6.237307686005324,
                    5.063590245,
                    4.11758921958464
                ],
                "label": "O",
                "properties": {}
            },
            {
                "species": [
                    {
                        "element": "O",
                        "occu": 1
                    }
                ],
                "abc": [
                    0.33569129,
                    0.54016174,
                    0.7797179
                ],
                "xyz": [
                    3.816968427016531,
                    3.646876956514968,
                    4.094096878515943
                ],
                "label": "O",
                "properties": {}
            },
            {
                "species": [
                    {
                        "element": "O",
                        "occu": 1
                    }
                ],
                "abc": [
                    0.83569129,
                    0.54016174,
                    0.7202821
                ],
                "xyz": [
                    9.502204447016531,
                    3.646876956514968,
                    3.7820148764840575
                ],
                "label": "O",
                "properties": {}
            },
            {
                "species": [
                    {
                        "element": "O",
                        "occu": 1
                    }
                ],
                "abc": [
                    0.59281709,
                    0.25,
                    0.73090232
                ],
                "xyz": [
                    6.740610146679163,
                    1.687863415,
                    3.8377789028725147
                ],
                "label": "O",
                "properties": {}
            },
            {
                "species": [
                    {
                        "element": "O",
                        "occu": 1
                    }
                ],
                "abc": [
                    0.0485531,
                    0.75,
                    0.715808
                ],
                "xyz": [
                    0.552071666005324,
                    5.063590245,
                    3.75852253541536
                ],
                "label": "O",
                "properties": {}
            },
            {
                "species": [
                    {
                        "element": "O",
                        "occu": 1
                    }
                ],
                "abc": [
                    0.16430871,
                    0.45983826,
                    0.2797179
                ],
                "xyz": [
                    1.8682675929834682,
                    3.104576703485032,
                    1.4687262935159433
                ],
                "label": "O",
                "properties": {}
            },
            {
                "species": [
                    {
                        "element": "O",
                        "occu": 1
                    }
                ],
                "abc": [
                    0.66430871,
                    0.45983826,
                    0.2202821
                ],
                "xyz": [
                    7.5535036129834685,
                    3.104576703485032,
                    1.1566442914840571
                ],
                "label": "O",
                "properties": {}
            },
            {
                "species": [
                    {
                        "element": "O",
                        "occu": 1
                    }
                ],
                "abc": [
                    0.40718291,
                    0.75,
                    0.26909768
                ],
                "xyz": [
                    4.629861893320836,
                    5.063590245,
                    1.4129622671274857
                ],
                "label": "O",
                "properties": {}
            },
            {
                "species": [
                    {
                        "element": "O",
                        "occu": 1
                    }
                ],
                "abc": [
                    0.33569129,
                    0.95983826,
                    0.7797179
                ],
                "xyz": [
                    3.816968427016531,
                    6.480303533485032,
                    4.094096878515943
                ],
                "label": "O",
                "properties": {}
            },
            {
                "species": [
                    {
                        "element": "O",
                        "occu": 1
                    }
                ],
                "abc": [
                    0.90718291,
                    0.75,
                    0.23090232
                ],
                "xyz": [
                    10.315097913320836,
                    5.063590245,
                    1.2124083178725145
                ],
                "label": "O",
                "properties": {}
            },
            {
                "species": [
                    {
                        "element": "O",
                        "occu": 1
                    }
                ],
                "abc": [
                    0.4514469,
                    0.25,
                    0.215808
                ],
                "xyz": [
                    5.133164353994675,
                    1.687863415,
                    1.13315195041536
                ],
                "label": "O",
                "properties": {}
            },
            {
                "species": [
                    {
                        "element": "O",
                        "occu": 1
                    }
                ],
                "abc": [
                    0.83569129,
                    0.95983826,
                    0.7202821
                ],
                "xyz": [
                    9.502204447016531,
                    6.480303533485032,
                    3.7820148764840575
                ],
                "label": "O",
                "properties": {}
            },
            {
                "species": [
                    {
                        "element": "O",
                        "occu": 1
                    }
                ],
                "abc": [
                    0.66430871,
                    0.04016174,
                    0.2202821
                ],
                "xyz": [
                    7.5535036129834685,
                    0.2711501265149684,
                    1.1566442914840571
                ],
                "label": "O",
                "properties": {}
            },
            {
                "species": [
                    {
                        "element": "O",
                        "occu": 1
                    }
                ],
                "abc": [
                    0.9514469,
                    0.25,
                    0.284192
                ],
                "xyz": [
                    10.818400373994676,
                    1.687863415,
                    1.4922186345846402
                ],
                "label": "O",
                "properties": {}
            },
            {
                "species": [
                    {
                        "element": "O",
                        "occu": 1
                    }
                ],
                "abc": [
                    0.16430871,
                    0.04016174,
                    0.2797179
                ],
                "xyz": [
                    1.8682675929834682,
                    0.2711501265149684,
                    1.4687262935159433
                ],
                "label": "O",
                "properties": {}
            },
            {
                "species": [
                    {
                        "element": "O",
                        "occu": 1
                    }
                ],
                "abc": [
                    0.09281709,
                    0.25,
                    0.76909768
                ],
                "xyz": [
                    1.0553741266791636,
                    1.687863415,
                    4.038332852127486
                ],
                "label": "O",
                "properties": {}
            }
        ]
    },
    "spacegroup": {
        "source": "spglib",
        "symbol": "Pnma",
        "number": 62,
        "point_group": "mmm",
        "crystal_system": "orthorhombic",
        "hall": "-P 2ac 2n"
    },
    "dielectric": {
        "epsilon_ionic": [
            [
                5.54267873,
                0.0,
                -0.0
            ],
            [
                0.0,
                5.24000569,
                1e-08
            ],
            [
                -0.0,
                1e-08,
                4.90313005
            ]
        ],
        "epsilon_ionic_avg": 5.228604823333334,
        "epsilon_ionic_eig": [
            4.90313005,
            5.24000569,
            5.54267873
        ],
        "epsilon_electronic": [
            [
                3.15974361,
                0.0,
                0.0
            ],
            [
                0.0,
                3.2469679,
                0.0
            ],
            [
                0.0,
                0.0,
                3.37137026
            ]
        ],
        "epsilon_electronic_avg": 3.25936059,
        "epsilon_electronic_eig": [
            3.15974361,
            3.2469679,
            3.37137026
        ]
    },
    "phonon": {
        "lowest_freq": -0.03494329281043871,
        "frequency": [
            -0.03494329281043871,
            -0.03208358106103163,
            -0.01502049641236586,
            1.9761863325998257,
            2.8170927597248046,
            3.1170413432023034,
            3.2336237143985085,
            3.6743678800669572,
            3.753393551770342,
            3.9955880709298053,
            4.004188501241387,
            4.030404937157306,
            4.147997094036236,
            4.766776094762863,
            5.094505728335413,
            5.247822596535461,
            5.346051370786735,
            5.44545172814074,
            5.684030211543749,
            5.826006907350024,
            5.856847563172602,
            5.970294931253817,
            6.247131776496333,
            6.317343117299052,
            6.49705654040757,
            6.538229848748042,
            6.6564213022659064,
            6.816602243476074,
            6.987777238208053,
            6.993635745881021,
            7.223863450302878,
            7.5890032708071,
            7.5962890227935755,
            7.7315834315463325,
            8.061185530854917,
            8.137743321888601,
            8.344568162443448,
            8.510965137695223,
            8.522227303693445,
            8.55537021946908,
            8.624688772481516,
            8.845972460993105,
            8.889834342853,
            8.953682769855256,
            8.958235466243007,
            9.162386303421686,
            9.94997331173843,
            10.097725190176861,
            10.118439178110133,
            10.216081310149981,
            10.285082244837882,
            10.29021456168257,
            10.467628452491386,
            10.603604496741875,
            10.611487855643013,
            10.822822347849426,
            10.85761962903423,
            11.159857275627301,
            11.694706790011715,
            12.039977898329157,
            12.044011780851799,
            12.184510762726628,
            12.430214826929033,
            13.118565428633692,
            13.215893906959725,
            13.23175197117702,
            13.438117033033702,
            13.811672000959998,
            19.40375114490221,
            19.58346838762349,
            19.86424139837597,
            19.908278197040975,
            19.981433890889363,
            20.261940419768575,
            20.380098827154285,
            21.484427407342647,
            21.544513718245547,
            21.557192876474915,
            21.634182464462874,
            21.760352069804068,
            21.843468858006524,
            21.87884731274682,
            21.981726108314053,
            22.205610014333917
        ]
    },
    "born_effective_charge": {
        "avg_abs_trace": 2.1956940476190474,
        "tensors": [
            [
                [
                    2.72002,
                    0.0,
                    -0.06279
                ],
                [
                    0.0001,
                    2.4256,
                    -0.00019
                ],
                [
                    0.09081,
                    0.0,
                    2.10212
                ]
            ],
            [
                [
                    2.71982,
                    0.0,
                    -0.06297
                ],
                [
                    -0.0001,
                    2.4256,
                    0.00019
                ],
                [
                    0.09081,
                    0.0,
                    2.1023
                ]
            ],
            [
                [
                    2.71982,
                    0.0,
                    0.06297
                ],
                [
                    -0.0001,
                    2.4256,
                    -0.00019
                ],
                [
                    -0.09081,
                    0.0,
                    2.10212
                ]
            ],
            [
                [
                    2.72002,
                    0.0,
                    0.06279
                ],
                [
                    0.0001,
                    2.4256,
                    0.00019
                ],
                [
                    -0.09081,
                    0.0,
                    2.1023
                ]
            ],
            [
                [
                    1.95574,
                    -0.44677,
                    -0.14302
                ],
                [
                    -0.4153,
                    2.40447,
                    0.32374
                ],
                [
                    0.01747,
                    0.01674,
                    2.64163
                ]
            ],
            [
                [
                    1.95574,
                    0.44677,
                    0.14302
                ],
                [
                    0.4153,
                    2.40447,
                    0.32374
                ],
                [
                    -0.01747,
                    0.01674,
                    2.64163
                ]
            ],
            [
                [
                    1.95574,
                    -0.44677,
                    0.14302
                ],
                [
                    -0.4153,
                    2.40447,
                    -0.32374
                ],
                [
                    -0.01747,
                    -0.01674,
                    2.64163
                ]
            ],
            [
                [
                    1.95574,
                    0.44677,
                    -0.14302
                ],
                [
                    0.4153,
                    2.40447,
                    -0.32374
                ],
                [
                    0.01747,
                    -0.01674,
                    2.64163
                ]
            ],
            [
                [
                    2.64148,
                    0.0,
                    -0.02662
                ],
                [
                    -0.00011,
                    2.90394,
                    5e-05
                ],
                [
                    0.03182,
                    0.0,
                    3.2598
                ]
            ],
            [
                [
                    2.64153,
                    0.0,
                    0.02666
                ],
                [
                    0.00011,
                    2.90394,
                    5e-05
                ],
                [
                    -0.03182,
                    0.0,
                    3.2598
                ]
            ],
            [
                [
                    2.64153,
                    0.0,
                    -0.02666
                ],
                [
                    0.00011,
                    2.90394,
                    -5e-05
                ],
                [
                    0.03181,
                    0.0,
                    3.25975
                ]
            ],
            [
                [
                    2.64148,
                    0.0,
                    0.02662
                ],
                [
                    -0.00011,
                    2.90394,
                    -5e-05
                ],
                [
                    -0.03181,
                    0.0,
                    3.25975
                ]
            ],
            [
                [
                    -2.29524,
                    0.0,
                    0.09622
                ],
                [
                    -0.00013,
                    -1.70601,
                    9e-05
                ],
                [
                    -0.0337,
                    0.0,
                    -1.86872
                ]
            ],
            [
                [
                    -1.73235,
                    -0.26382,
                    -0.08874
                ],
                [
                    -0.23557,
                    -2.20777,
                    -0.05417
                ],
                [
                    -0.00141,
                    0.02795,
                    -1.72799
                ]
            ],
            [
                [
                    -1.73235,
                    -0.26382,
                    0.08874
                ],
                [
                    -0.23557,
                    -2.20777,
                    0.05417
                ],
                [
                    0.0014,
                    -0.0279,
                    -1.72789
                ]
            ],
            [
                [
                    -1.55746,
                    0.0,
                    -0.04942
                ],
                [
                    2e-05,
                    -1.61264,
                    8e-05
                ],
                [
                    -0.09519,
                    0.0,
                    -2.67908
                ]
            ],
            [
                [
                    -2.29524,
                    0.0,
                    -0.09622
                ],
                [
                    -0.00013,
                    -1.70601,
                    -9e-05
                ],
                [
                    0.03339,
                    0.0,
                    -1.86865
                ]
            ],
            [
                [
                    -1.7322,
                    -0.26372,
                    0.08863
                ],
                [
                    -0.23556,
                    -2.20759,
                    0.05391
                ],
                [
                    0.00141,
                    -0.02795,
                    -1.72799
                ]
            ],
            [
                [
                    -1.7322,
                    -0.26372,
                    -0.08863
                ],
                [
                    -0.23556,
                    -2.20759,
                    -0.05391
                ],
                [
                    -0.0014,
                    0.0279,
                    -1.72789
                ]
            ],
            [
                [
                    -1.55742,
                    0.0,
                    -0.04966
                ],
                [
                    -2e-05,
                    -1.61264,
                    -8e-05
                ],
                [
                    -0.09525,
                    0.0,
                    -2.67902
                ]
            ],
            [
                [
                    -1.73235,
                    0.26382,
                    -0.08874
                ],
                [
                    0.23556,
                    -2.20759,
                    0.05391
                ],
                [
                    -0.00141,
                    -0.02795,
                    -1.72799
                ]
            ],
            [
                [
                    -1.55742,
                    -0.0,
                    0.04966
                ],
                [
                    -2e-05,
                    -1.61264,
                    8e-05
                ],
                [
                    0.09519,
                    0.0,
                    -2.67908
                ]
            ],
            [
                [
                    -2.2951,
                    0.0,
                    0.09632
                ],
                [
                    0.00013,
                    -1.70601,
                    -9e-05
                ],
                [
                    -0.03339,
                    0.0,
                    -1.86865
                ]
            ],
            [
                [
                    -1.73235,
                    0.26382,
                    0.08874
                ],
                [
                    0.23556,
                    -2.20759,
                    -0.05391
                ],
                [
                    0.0014,
                    0.0279,
                    -1.72789
                ]
            ],
            [
                [
                    -1.7322,
                    0.26372,
                    -0.08863
                ],
                [
                    0.23557,
                    -2.20777,
                    0.05417
                ],
                [
                    -0.0014,
                    -0.0279,
                    -1.72789
                ]
            ],
            [
                [
                    -2.2951,
                    0.0,
                    -0.09632
                ],
                [
                    0.00013,
                    -1.70601,
                    9e-05
                ],
                [
                    0.0337,
                    0.0,
                    -1.86872
                ]
            ],
            [
                [
                    -1.7322,
                    0.26372,
                    0.08863
                ],
                [
                    0.23557,
                    -2.20777,
                    -0.05417
                ],
                [
                    0.00141,
                    0.02795,
                    -1.72799
                ]
            ],
            [
                [
                    -1.55746,
                    -0.0,
                    0.04942
                ],
                [
                    2e-05,
                    -1.61264,
                    -8e-05
                ],
                [
                    0.09525,
                    0.0,
                    -2.67902
                ]
            ]
        ]
    },
    "band_gap": 3.5394999999999994,
    "is_direct": false,
    "formula": "Ca2GeO4"
}