{
    "mp_id": "mp-561478",
    "nelements": 4,
    "nsites": 32,
    "elements": [
        "K",
        "Mo",
        "O",
        "Sb"
    ],
    "structure": {
        "@module": "pymatgen.core.structure",
        "@class": "Structure",
        "charge": null,
        "lattice": {
            "matrix": [
                [
                    9.16878507,
                    0.0,
                    0.00159036
                ],
                [
                    0.0,
                    11.59486601,
                    0.0
                ],
                [
                    -1.77662015,
                    0.0,
                    5.41964151
                ]
            ],
            "a": 9.168785207926938,
            "b": 11.59486601,
            "c": 5.703410668565004,
            "alpha": 90.0,
            "beta": 108.13979424495489,
            "gamma": 90.0,
            "volume": 576.1993717616605
        },
        "sites": [
            {
                "species": [
                    {
                        "element": "K",
                        "occu": 1
                    }
                ],
                "abc": [
                    0.10705642,
                    0.85517345,
                    0.54182336
                ],
                "xyz": [
                    0.018963006226945356,
                    9.915621568059436,
                    2.9366586311917846
                ],
                "label": "K",
                "properties": {}
            },
            {
                "species": [
                    {
                        "element": "K",
                        "occu": 1
                    }
                ],
                "abc": [
                    0.10705642,
                    0.64482655,
                    0.04182336
                ],
                "xyz": [
                    0.9072730812269454,
                    7.476677446940566,
                    0.22683787619178478
                ],
                "label": "K",
                "properties": {}
            },
            {
                "species": [
                    {
                        "element": "K",
                        "occu": 1
                    }
                ],
                "abc": [
                    0.89294358,
                    0.14482655,
                    0.45817664
                ],
                "xyz": [
                    7.373201913773054,
                    1.6792444419405657,
                    2.484573238808215
                ],
                "label": "K",
                "properties": {}
            },
            {
                "species": [
                    {
                        "element": "K",
                        "occu": 1
                    }
                ],
                "abc": [
                    0.89294358,
                    0.35517345,
                    0.95817664
                ],
                "xyz": [
                    6.484891838773054,
                    4.118188563059435,
                    5.194393993808216
                ],
                "label": "K",
                "properties": {}
            },
            {
                "species": [
                    {
                        "element": "Sb",
                        "occu": 1
                    }
                ],
                "abc": [
                    0.53662752,
                    0.33226785,
                    0.21342833
                ],
                "xyz": [
                    4.541041321868277,
                    3.8526012001807786,
                    1.1575584676206856
                ],
                "label": "Sb",
                "properties": {}
            },
            {
                "species": [
                    {
                        "element": "Sb",
                        "occu": 1
                    }
                ],
                "abc": [
                    0.46337248,
                    0.83226785,
                    0.28657167
                ],
                "xyz": [
                    3.7394336731317233,
                    9.650034205180779,
                    1.5538526473793144
                ],
                "label": "Sb",
                "properties": {}
            },
            {
                "species": [
                    {
                        "element": "Sb",
                        "occu": 1
                    }
                ],
                "abc": [
                    0.53662752,
                    0.16773215,
                    0.71342833
                ],
                "xyz": [
                    3.6527312468682767,
                    1.9448318048192215,
                    3.8673792226206856
                ],
                "label": "Sb",
                "properties": {}
            },
            {
                "species": [
                    {
                        "element": "Sb",
                        "occu": 1
                    }
                ],
                "abc": [
                    0.46337248,
                    0.66773215,
                    0.78657167
                ],
                "xyz": [
                    2.851123598131723,
                    7.742264809819221,
                    4.263673402379315
                ],
                "label": "Sb",
                "properties": {}
            },
            {
                "species": [
                    {
                        "element": "Mo",
                        "occu": 1
                    }
                ],
                "abc": [
                    0.21834604,
                    0.08682634,
                    0.07264136
                ],
                "xyz": [
                    1.8729118077462186,
                    1.0067397784387035,
                    0.394037378807028
                ],
                "label": "Mo",
                "properties": {}
            },
            {
                "species": [
                    {
                        "element": "Mo",
                        "occu": 1
                    }
                ],
                "abc": [
                    0.21834604,
                    0.41317366,
                    0.57264136
                ],
                "xyz": [
                    0.9846017327462186,
                    4.790693226561297,
                    3.103858133807028
                ],
                "label": "Mo",
                "properties": {}
            },
            {
                "species": [
                    {
                        "element": "Mo",
                        "occu": 1
                    }
                ],
                "abc": [
                    0.78165396,
                    0.58682634,
                    0.42735864
                ],
                "xyz": [
                    6.407563187253782,
                    6.804172783438704,
                    2.3173737361929723
                ],
                "label": "Mo",
                "properties": {}
            },
            {
                "species": [
                    {
                        "element": "Mo",
                        "occu": 1
                    }
                ],
                "abc": [
                    0.78165396,
                    0.91317366,
                    0.92735864
                ],
                "xyz": [
                    5.519253112253781,
                    10.588126231561297,
                    5.027194491192971
                ],
                "label": "Mo",
                "properties": {}
            },
            {
                "species": [
                    {
                        "element": "O",
                        "occu": 1
                    }
                ],
                "abc": [
                    0.65076125,
                    0.23549983,
                    0.04120741
                ],
                "xyz": [
                    5.893480118199226,
                    2.7305889742277785,
                    0.2243643344171391
                ],
                "label": "O",
                "properties": {}
            },
            {
                "species": [
                    {
                        "element": "O",
                        "occu": 1
                    }
                ],
                "abc": [
                    0.73468671,
                    0.05306433,
                    0.77277941
                ],
                "xyz": [
                    5.3632490664643075,
                    0.6152737962604233,
                    4.189355784865425
                ],
                "label": "O",
                "properties": {}
            },
            {
                "species": [
                    {
                        "element": "O",
                        "occu": 1
                    }
                ],
                "abc": [
                    0.38759587,
                    0.17810038,
                    0.1844296
                ],
                "xyz": [
                    3.2261218824332207,
                    2.0650500424300837,
                    1.0001587328005093
                ],
                "label": "O",
                "properties": {}
            },
            {
                "species": [
                    {
                        "element": "O",
                        "occu": 1
                    }
                ],
                "abc": [
                    0.73468671,
                    0.44693567,
                    0.27277941
                ],
                "xyz": [
                    6.251559141464308,
                    5.182159208739577,
                    1.4795350298654246
                ],
                "label": "O",
                "properties": {}
            },
            {
                "species": [
                    {
                        "element": "O",
                        "occu": 1
                    }
                ],
                "abc": [
                    0.82456737,
                    0.93272485,
                    0.24686013
                ],
                "xyz": [
                    7.121704310075547,
                    10.81481965994735,
                    1.3392047666745497
                ],
                "label": "O",
                "properties": {}
            },
            {
                "species": [
                    {
                        "element": "O",
                        "occu": 1
                    }
                ],
                "abc": [
                    0.26531329,
                    0.94693567,
                    0.22722059
                ],
                "xyz": [
                    2.028915853535692,
                    10.979592213739577,
                    1.2318760851345754
                ],
                "label": "O",
                "properties": {}
            },
            {
                "species": [
                    {
                        "element": "O",
                        "occu": 1
                    }
                ],
                "abc": [
                    0.34923875,
                    0.76450017,
                    0.95879259
                ],
                "xyz": [
                    1.4986848018007741,
                    8.864277035772222,
                    5.196867535582861
                ],
                "label": "O",
                "properties": {}
            },
            {
                "species": [
                    {
                        "element": "O",
                        "occu": 1
                    }
                ],
                "abc": [
                    0.82456737,
                    0.56727515,
                    0.74686013
                ],
                "xyz": [
                    6.233394235075547,
                    6.577479355052652,
                    4.049025521674549
                ],
                "label": "O",
                "properties": {}
            },
            {
                "species": [
                    {
                        "element": "O",
                        "occu": 1
                    }
                ],
                "abc": [
                    0.05861184,
                    0.14903731,
                    0.1317886
                ],
                "xyz": [
                    0.30326108121693884,
                    1.7280676399408332,
                    0.7143401810306483
                ],
                "label": "O",
                "properties": {}
            },
            {
                "species": [
                    {
                        "element": "O",
                        "occu": 1
                    }
                ],
                "abc": [
                    0.26531329,
                    0.55306433,
                    0.72722059
                ],
                "xyz": [
                    1.1406057785356918,
                    6.412706801260423,
                    3.941696840134575
                ],
                "label": "O",
                "properties": {}
            },
            {
                "species": [
                    {
                        "element": "O",
                        "occu": 1
                    }
                ],
                "abc": [
                    0.94138816,
                    0.64903731,
                    0.3682114
                ],
                "xyz": [
                    7.977213913783061,
                    7.525500644940833,
                    1.9970709339693515
                ],
                "label": "O",
                "properties": {}
            },
            {
                "species": [
                    {
                        "element": "O",
                        "occu": 1
                    }
                ],
                "abc": [
                    0.61240413,
                    0.67810038,
                    0.3155704
                ],
                "xyz": [
                    5.05435311256678,
                    7.862483047430083,
                    1.7112523821994907
                ],
                "label": "O",
                "properties": {}
            },
            {
                "species": [
                    {
                        "element": "O",
                        "occu": 1
                    }
                ],
                "abc": [
                    0.17543263,
                    0.06727515,
                    0.75313987
                ],
                "xyz": [
                    0.27046060992445353,
                    0.7800463500526515,
                    4.0820271033254505
                ],
                "label": "O",
                "properties": {}
            },
            {
                "species": [
                    {
                        "element": "O",
                        "occu": 1
                    }
                ],
                "abc": [
                    0.38759587,
                    0.32189962,
                    0.6844296
                ],
                "xyz": [
                    2.337811807433221,
                    3.7323829625699165,
                    3.709979487800509
                ],
                "label": "O",
                "properties": {}
            },
            {
                "species": [
                    {
                        "element": "O",
                        "occu": 1
                    }
                ],
                "abc": [
                    0.65076125,
                    0.26450017,
                    0.54120741
                ],
                "xyz": [
                    5.005170043199226,
                    3.066844030772222,
                    2.9341850894171393
                ],
                "label": "O",
                "properties": {}
            },
            {
                "species": [
                    {
                        "element": "O",
                        "occu": 1
                    }
                ],
                "abc": [
                    0.17543263,
                    0.43272485,
                    0.25313987
                ],
                "xyz": [
                    1.1587706849244537,
                    5.017386654947349,
                    1.3722063483254503
                ],
                "label": "O",
                "properties": {}
            },
            {
                "species": [
                    {
                        "element": "O",
                        "occu": 1
                    }
                ],
                "abc": [
                    0.05861184,
                    0.35096269,
                    0.6317886
                ],
                "xyz": [
                    -0.5850489937830613,
                    4.069365365059167,
                    3.4241609360306486
                ],
                "label": "O",
                "properties": {}
            },
            {
                "species": [
                    {
                        "element": "O",
                        "occu": 1
                    }
                ],
                "abc": [
                    0.34923875,
                    0.73549983,
                    0.45879259
                ],
                "xyz": [
                    2.386994876800774,
                    8.528021979227779,
                    2.487046780582861
                ],
                "label": "O",
                "properties": {}
            },
            {
                "species": [
                    {
                        "element": "O",
                        "occu": 1
                    }
                ],
                "abc": [
                    0.94138816,
                    0.85096269,
                    0.8682114
                ],
                "xyz": [
                    7.088903838783061,
                    9.866798370059168,
                    4.7068916889693515
                ],
                "label": "O",
                "properties": {}
            },
            {
                "species": [
                    {
                        "element": "O",
                        "occu": 1
                    }
                ],
                "abc": [
                    0.61240413,
                    0.82189962,
                    0.8155704
                ],
                "xyz": [
                    4.166043037566779,
                    9.529815967569917,
                    4.421073137199491
                ],
                "label": "O",
                "properties": {}
            }
        ]
    },
    "spacegroup": {
        "source": "spglib",
        "symbol": "P2_1/c",
        "number": 14,
        "point_group": "2/m",
        "crystal_system": "monoclinic",
        "hall": "-P 2ybc"
    },
    "dielectric": {
        "epsilon_ionic": [
            [
                4.54478297,
                -1.17e-06,
                0.48672142
            ],
            [
                -1.17e-06,
                11.97166158,
                -1.11e-06
            ],
            [
                0.48672142,
                -1.11e-06,
                5.3967502
            ]
        ],
        "epsilon_ionic_avg": 7.304398249999999,
        "epsilon_ionic_eig": [
            4.323959209550905,
            5.617573960448696,
            11.971661580000397
        ],
        "epsilon_electronic": [
            [
                3.39831133,
                0.0,
                0.07307871
            ],
            [
                0.0,
                3.91807277,
                0.0
            ],
            [
                0.0730793,
                0.0,
                3.4803414
            ]
        ],
        "epsilon_electronic_avg": 3.5989085000000003,
        "epsilon_electronic_eig": [
            3.3555243717793477,
            3.523128358220652,
            3.91807277
        ]
    },
    "phonon": {
        "lowest_freq": -0.062401838405495326,
        "frequency": [
            -0.062401838405495326,
            -0.03186279934632081,
            -0.0304008047860272,
            1.1839356633690556,
            1.409280599728105,
            1.4748882666516456,
            1.7670647661747125,
            1.7873582891642272,
            1.8210506507892616,
            1.8703669119168869,
            1.988544584358613,
            2.233594251403708,
            2.2713303016510134,
            2.439912386633222,
            2.4621611350710992,
            2.4653711652974866,
            2.6185375594342997,
            2.696714597018882,
            2.8519403290190204,
            2.9675793129355426,
            3.0206634246104596,
            3.0882969489278103,
            3.2115772613143188,
            3.3364757797016678,
            3.4006978968032255,
            3.4544588670441176,
            3.630724860496613,
            3.655653559896345,
            3.8769745130734217,
            3.9184348852543254,
            3.9621246429209016,
            4.0442357882245314,
            4.111234245111578,
            4.188806034573592,
            4.325700227059211,
            4.424241971949125,
            4.502237875601966,
            4.55467517066227,
            4.760261588466389,
            4.817507186786773,
            4.9110611364960794,
            5.248278350895705,
            5.276168692519503,
            5.4663147673664385,
            5.672279762774876,
            6.137354822970464,
            6.198544725767561,
            6.278825310134674,
            6.286578254119931,
            6.433035711739516,
            7.596566177404004,
            8.031316215888223,
            8.216357827693226,
            8.268261829695152,
            8.292796691592603,
            8.417322946961244,
            8.741921814576646,
            8.856679821319947,
            8.86856047115972,
            9.049676887719825,
            9.096887555335428,
            9.346585427205945,
            9.49195679306955,
            9.644104519193442,
            9.65226656160199,
            9.663804809104304,
            9.739496569752822,
            9.949421662991474,
            10.361129278614982,
            10.377404367069381,
            10.80768164358107,
            11.00408909688872,
            14.000045709672133,
            14.021125308224637,
            15.010213456837974,
            15.25560676967111,
            17.22249418199183,
            17.224023593256952,
            19.995914917084573,
            20.05784455182441,
            21.227410096906805,
            21.444940634514097,
            22.999505680581517,
            23.61224098753126,
            24.076822119521285,
            24.0769686973021,
            24.753347462578827,
            24.94453351074131,
            25.998270955170227,
            26.1358354517126,
            26.16240731183335,
            26.28872246110458,
            27.099374543591107,
            27.105183292926583,
            27.262450810170137,
            27.27250181071948
        ]
    },
    "born_effective_charge": {
        "avg_abs_trace": 2.2226733333333337,
        "tensors": [
            [
                [
                    1.6298,
                    0.18418,
                    0.05955
                ],
                [
                    0.03087,
                    1.22219,
                    0.03118
                ],
                [
                    0.19656,
                    0.09471,
                    1.31372
                ]
            ],
            [
                [
                    1.6298,
                    -0.18418,
                    0.05955
                ],
                [
                    -0.03087,
                    1.22219,
                    -0.03116
                ],
                [
                    0.19656,
                    -0.09471,
                    1.31372
                ]
            ],
            [
                [
                    1.62966,
                    0.18423,
                    0.05977
                ],
                [
                    0.03087,
                    1.22219,
                    0.03116
                ],
                [
                    0.19681,
                    0.09456,
                    1.31374
                ]
            ],
            [
                [
                    1.62966,
                    -0.18423,
                    0.05977
                ],
                [
                    -0.03087,
                    1.22219,
                    -0.03118
                ],
                [
                    0.19681,
                    -0.09456,
                    1.31374
                ]
            ],
            [
                [
                    3.10066,
                    1.1788,
                    -0.24651
                ],
                [
                    1.77098,
                    4.51293,
                    0.05193
                ],
                [
                    -0.13206,
                    0.57134,
                    3.74672
                ]
            ],
            [
                [
                    3.1007,
                    -1.17902,
                    -0.24749
                ],
                [
                    -1.77098,
                    4.51293,
                    -0.05193
                ],
                [
                    -0.13192,
                    -0.5706,
                    3.74662
                ]
            ],
            [
                [
                    3.10066,
                    -1.1788,
                    -0.24651
                ],
                [
                    -1.77102,
                    4.51297,
                    -0.05193
                ],
                [
                    -0.13206,
                    -0.57134,
                    3.74672
                ]
            ],
            [
                [
                    3.1007,
                    1.17902,
                    -0.24749
                ],
                [
                    1.77102,
                    4.51297,
                    0.05193
                ],
                [
                    -0.13192,
                    0.5706,
                    3.74662
                ]
            ],
            [
                [
                    3.5347,
                    0.0468,
                    0.43805
                ],
                [
                    0.77534,
                    4.23721,
                    -0.17593
                ],
                [
                    0.29096,
                    0.13959,
                    3.3744
                ]
            ],
            [
                [
                    3.5347,
                    -0.0468,
                    0.43805
                ],
                [
                    -0.77534,
                    4.23707,
                    0.1761
                ],
                [
                    0.29096,
                    -0.13959,
                    3.3744
                ]
            ],
            [
                [
                    3.53422,
                    -0.04673,
                    0.43877
                ],
                [
                    -0.77534,
                    4.23721,
                    0.17593
                ],
                [
                    0.29166,
                    -0.13992,
                    3.37465
                ]
            ],
            [
                [
                    3.53422,
                    0.04673,
                    0.43877
                ],
                [
                    0.77534,
                    4.23707,
                    -0.1761
                ],
                [
                    0.29166,
                    0.13992,
                    3.37465
                ]
            ],
            [
                [
                    -1.43956,
                    0.4864,
                    0.42334
                ],
                [
                    0.28358,
                    -1.73343,
                    -0.81471
                ],
                [
                    0.40423,
                    -1.44253,
                    -2.78824
                ]
            ],
            [
                [
                    -1.49847,
                    0.79477,
                    -0.4224
                ],
                [
                    1.45169,
                    -3.80305,
                    1.42855
                ],
                [
                    -0.36437,
                    0.9534,
                    -1.12645
                ]
            ],
            [
                [
                    -2.11179,
                    -1.7057,
                    -0.52178
                ],
                [
                    -2.22253,
                    -2.8094,
                    -0.78351
                ],
                [
                    -0.60364,
                    -0.5962,
                    -1.42051
                ]
            ],
            [
                [
                    -1.49847,
                    -0.79477,
                    -0.4224
                ],
                [
                    -1.4518,
                    -3.80305,
                    -1.42822
                ],
                [
                    -0.36437,
                    -0.9534,
                    -1.12645
                ]
            ],
            [
                [
                    -0.69511,
                    -0.23328,
                    -0.11044
                ],
                [
                    -0.02286,
                    -0.64113,
                    -0.20334
                ],
                [
                    0.06602,
                    -0.36709,
                    -2.40044
                ]
            ],
            [
                [
                    -1.49817,
                    0.79461,
                    -0.42253
                ],
                [
                    1.4518,
                    -3.80305,
                    1.42822
                ],
                [
                    -0.36415,
                    0.95323,
                    -1.12679
                ]
            ],
            [
                [
                    -1.44046,
                    0.48562,
                    0.42243
                ],
                [
                    0.28351,
                    -1.73343,
                    -0.81468
                ],
                [
                    0.40398,
                    -1.44336,
                    -2.78923
                ]
            ],
            [
                [
                    -0.69511,
                    0.23328,
                    -0.11044
                ],
                [
                    0.02241,
                    -0.64136,
                    0.20461
                ],
                [
                    0.06602,
                    0.36709,
                    -2.40044
                ]
            ],
            [
                [
                    -2.52132,
                    0.73619,
                    0.37853
                ],
                [
                    0.61538,
                    -0.98544,
                    -0.11136
                ],
                [
                    0.14078,
                    -0.12296,
                    -0.70017
                ]
            ],
            [
                [
                    -1.49817,
                    -0.79461,
                    -0.42253
                ],
                [
                    -1.45169,
                    -3.80305,
                    -1.42855
                ],
                [
                    -0.36415,
                    -0.95323,
                    -1.12679
                ]
            ],
            [
                [
                    -2.5187,
                    -0.73455,
                    0.37822
                ],
                [
                    -0.61538,
                    -0.98544,
                    0.11136
                ],
                [
                    0.1431,
                    0.12416,
                    -0.69969
                ]
            ],
            [
                [
                    -2.11129,
                    1.70605,
                    -0.52148
                ],
                [
                    2.22253,
                    -2.8094,
                    0.78351
                ],
                [
                    -0.60321,
                    0.5974,
                    -1.42037
                ]
            ],
            [
                [
                    -0.69487,
                    -0.23297,
                    -0.10602
                ],
                [
                    -0.02241,
                    -0.64136,
                    -0.20461
                ],
                [
                    0.06522,
                    -0.36622,
                    -2.39796
                ]
            ],
            [
                [
                    -2.11179,
                    1.7057,
                    -0.52178
                ],
                [
                    2.22245,
                    -2.80933,
                    0.78361
                ],
                [
                    -0.60364,
                    0.5962,
                    -1.42051
                ]
            ],
            [
                [
                    -1.43956,
                    -0.4864,
                    0.42334
                ],
                [
                    -0.28351,
                    -1.73343,
                    0.81468
                ],
                [
                    0.40423,
                    1.44253,
                    -2.78824
                ]
            ],
            [
                [
                    -0.69487,
                    0.23297,
                    -0.10602
                ],
                [
                    0.02286,
                    -0.64113,
                    0.20334
                ],
                [
                    0.06522,
                    0.36622,
                    -2.39796
                ]
            ],
            [
                [
                    -2.52132,
                    -0.73619,
                    0.37853
                ],
                [
                    -0.61433,
                    -0.98496,
                    0.11144
                ],
                [
                    0.14078,
                    0.12296,
                    -0.70017
                ]
            ],
            [
                [
                    -1.44046,
                    -0.48562,
                    0.42243
                ],
                [
                    -0.28358,
                    -1.73343,
                    0.81471
                ],
                [
                    0.40398,
                    1.44336,
                    -2.78923
                ]
            ],
            [
                [
                    -2.5187,
                    0.73455,
                    0.37822
                ],
                [
                    0.61433,
                    -0.98496,
                    -0.11144
                ],
                [
                    0.1431,
                    -0.12416,
                    -0.69969
                ]
            ],
            [
                [
                    -2.11129,
                    -1.70605,
                    -0.52148
                ],
                [
                    -2.22245,
                    -2.80933,
                    -0.78361
                ],
                [
                    -0.60321,
                    -0.5974,
                    -1.42037
                ]
            ]
        ]
    },
    "band_gap": 3.1245000000000003,
    "is_direct": false,
    "formula": "KSbMoO5"
}