{
    "mp_id": "mp-545544",
    "nelements": 4,
    "nsites": 10,
    "elements": [
        "Ba",
        "Bi",
        "O",
        "Ta"
    ],
    "structure": {
        "@module": "pymatgen.core.structure",
        "@class": "Structure",
        "charge": null,
        "lattice": {
            "matrix": [
                [
                    5.22408089,
                    -3.01826943,
                    0.00027962
                ],
                [
                    5.22408089,
                    3.01826943,
                    0.00027962
                ],
                [
                    -3.52726431,
                    0.0,
                    4.98999994
                ]
            ],
            "a": 6.0333217695994845,
            "b": 6.0333217695994845,
            "c": 6.110784967072543,
            "alpha": 119.98412512584856,
            "beta": 119.98412512584856,
            "gamma": 60.03528071561356,
            "volume": 157.36743473614084
        },
        "sites": [
            {
                "species": [
                    {
                        "element": "Ba",
                        "occu": 1
                    }
                ],
                "abc": [
                    0.2487214,
                    0.2487214,
                    0.24306555
                ],
                "xyz": [
                    1.7413249858425712,
                    0.0,
                    1.213036174871803
                ],
                "label": "Ba",
                "properties": {}
            },
            {
                "species": [
                    {
                        "element": "Ba",
                        "occu": 1
                    }
                ],
                "abc": [
                    0.7512786,
                    0.7512786,
                    0.75693445
                ],
                "xyz": [
                    5.179572484157427,
                    0.0,
                    3.777523005128197
                ],
                "label": "Ba",
                "properties": {}
            },
            {
                "species": [
                    {
                        "element": "Ta",
                        "occu": 1
                    }
                ],
                "abc": [
                    0.5,
                    0.5,
                    0.0
                ],
                "xyz": [
                    5.22408089,
                    0.0,
                    0.00027962
                ],
                "label": "Ta",
                "properties": {}
            },
            {
                "species": [
                    {
                        "element": "Bi",
                        "occu": 1
                    }
                ],
                "abc": [
                    0.0,
                    0.0,
                    0.5
                ],
                "xyz": [
                    -1.763632155,
                    0.0,
                    2.49499997
                ],
                "label": "Bi",
                "properties": {}
            },
            {
                "species": [
                    {
                        "element": "O",
                        "occu": 1
                    }
                ],
                "abc": [
                    0.22968755,
                    0.69667684,
                    0.19134929
                ],
                "xyz": [
                    4.164462985614667,
                    1.4094994981444047,
                    0.9550919756297743
                ],
                "label": "O",
                "properties": {}
            },
            {
                "species": [
                    {
                        "element": "O",
                        "occu": 1
                    }
                ],
                "abc": [
                    0.77031245,
                    0.30332316,
                    0.80865071
                ],
                "xyz": [
                    2.756434484385333,
                    -1.409499498144405,
                    4.035467204370225
                ],
                "label": "O",
                "properties": {}
            },
            {
                "species": [
                    {
                        "element": "O",
                        "occu": 1
                    }
                ],
                "abc": [
                    0.69667684,
                    0.22968755,
                    0.19134929
                ],
                "xyz": [
                    4.164462985614667,
                    -1.4094994981444047,
                    0.9550919756297743
                ],
                "label": "O",
                "properties": {}
            },
            {
                "species": [
                    {
                        "element": "O",
                        "occu": 1
                    }
                ],
                "abc": [
                    0.27038185,
                    0.27038185,
                    0.70336904
                ],
                "xyz": [
                    0.34402479962473054,
                    0.0,
                    3.5099626757436515
                ],
                "label": "O",
                "properties": {}
            },
            {
                "species": [
                    {
                        "element": "O",
                        "occu": 1
                    }
                ],
                "abc": [
                    0.30332316,
                    0.77031245,
                    0.80865071
                ],
                "xyz": [
                    2.756434484385333,
                    1.409499498144405,
                    4.035467204370225
                ],
                "label": "O",
                "properties": {}
            },
            {
                "species": [
                    {
                        "element": "O",
                        "occu": 1
                    }
                ],
                "abc": [
                    0.72961815,
                    0.72961815,
                    0.29663096
                ],
                "xyz": [
                    6.576872670375269,
                    0.0,
                    1.4805965042563485
                ],
                "label": "O",
                "properties": {}
            }
        ]
    },
    "spacegroup": {
        "source": "spglib",
        "symbol": "C2/m",
        "number": 12,
        "point_group": "2/m",
        "crystal_system": "monoclinic",
        "hall": "-C 2y"
    },
    "dielectric": {
        "epsilon_ionic": [
            [
                37.16153303,
                0.0,
                3.59962498
            ],
            [
                0.0,
                45.02318241,
                -2e-08
            ],
            [
                3.59962498,
                -2e-08,
                37.59961911
            ]
        ],
        "epsilon_ionic_avg": 39.92811151666666,
        "epsilon_ionic_eig": [
            33.77429268540409,
            40.98685945459589,
            45.02318241
        ],
        "epsilon_electronic": [
            [
                5.51621277,
                0.0,
                -0.0236762
            ],
            [
                0.0,
                5.49322818,
                0.0
            ],
            [
                -0.02367562,
                0.0,
                5.58745209
            ]
        ],
        "epsilon_electronic_avg": 5.53229768,
        "epsilon_electronic_eig": [
            5.5090620092309734,
            5.594602850769027,
            5.49322818
        ]
    },
    "phonon": {
        "lowest_freq": -0.01282543262949936,
        "frequency": [
            -0.01282543262949936,
            -0.008068671120363746,
            -0.0034527457815102564,
            1.841361307114972,
            2.1060078478325046,
            2.761483431396322,
            3.019252220738763,
            3.1271134554428524,
            3.2145691170559365,
            3.3002506001415624,
            3.421938956926449,
            3.9465212532866616,
            4.027128797064603,
            4.309240496861608,
            5.552858687697541,
            5.783972282891988,
            5.938082463209797,
            7.227680183619235,
            7.484552764813979,
            7.656961987307306,
            8.097204126130787,
            10.275769880282386,
            10.465221911852526,
            11.079230883151443,
            12.627259906672599,
            12.737148833388133,
            13.193226506602214,
            16.28449572089685,
            16.368560524004042,
            22.477620167013008
        ]
    },
    "born_effective_charge": {
        "avg_abs_trace": 3.682736666666667,
        "tensors": [
            [
                [
                    2.67589,
                    0.0,
                    -0.11265
                ],
                [
                    -4e-05,
                    2.68888,
                    -0.00013
                ],
                [
                    -0.09173,
                    -0.0,
                    2.77408
                ]
            ],
            [
                [
                    2.67586,
                    0.0,
                    -0.11285
                ],
                [
                    4e-05,
                    2.68888,
                    0.00013
                ],
                [
                    -0.09189,
                    -0.0,
                    2.77442
                ]
            ],
            [
                [
                    7.73577,
                    0.0,
                    0.48697
                ],
                [
                    0.0,
                    7.6186,
                    0.0
                ],
                [
                    -0.41471,
                    -0.0,
                    7.53484
                ]
            ],
            [
                [
                    5.29542,
                    0.0,
                    -0.40484
                ],
                [
                    0.0,
                    5.11389,
                    0.0
                ],
                [
                    0.3509,
                    -0.0,
                    5.66453
                ]
            ],
            [
                [
                    -2.49623,
                    1.16481,
                    0.92649
                ],
                [
                    1.17535,
                    -3.68861,
                    -1.56544
                ],
                [
                    0.94471,
                    -1.47029,
                    -3.0079
                ]
            ],
            [
                [
                    -2.49584,
                    1.16496,
                    0.92655
                ],
                [
                    1.1754,
                    -3.68878,
                    -1.56555
                ],
                [
                    0.94413,
                    -1.47045,
                    -3.00815
                ]
            ],
            [
                [
                    -2.49623,
                    -1.16481,
                    0.92649
                ],
                [
                    -1.1754,
                    -3.68878,
                    1.56555
                ],
                [
                    0.94471,
                    1.47029,
                    -3.0079
                ]
            ],
            [
                [
                    -4.19928,
                    0.0,
                    -1.78126
                ],
                [
                    0.0002,
                    -1.67773,
                    5e-05
                ],
                [
                    -1.76547,
                    -0.0,
                    -3.3579
                ]
            ],
            [
                [
                    -2.49584,
                    -1.16496,
                    0.92655
                ],
                [
                    -1.17535,
                    -3.68861,
                    1.56544
                ],
                [
                    0.94413,
                    1.47045,
                    -3.00815
                ]
            ],
            [
                [
                    -4.19952,
                    0.0,
                    -1.78145
                ],
                [
                    -0.0002,
                    -1.67773,
                    -5e-05
                ],
                [
                    -1.76479,
                    -0.0,
                    -3.35786
                ]
            ]
        ]
    },
    "band_gap": 2.5462,
    "is_direct": false,
    "formula": "Ba2TaBiO6"
}