{
    "mp_id": "mp-556902",
    "nelements": 4,
    "nsites": 22,
    "elements": [
        "K",
        "Li",
        "Nb",
        "O"
    ],
    "structure": {
        "@module": "pymatgen.core.structure",
        "@class": "Structure",
        "charge": null,
        "lattice": {
            "matrix": [
                [
                    5.8312652,
                    0.0001422,
                    -0.00011723
                ],
                [
                    2.88474066,
                    5.1764888,
                    -9.135e-05
                ],
                [
                    1.58458978,
                    -0.51828447,
                    8.0614764
                ]
            ],
            "a": 5.831265202912207,
            "b": 5.9260243823601915,
            "c": 8.23206810652588,
            "alpha": 87.78259147309295,
            "beta": 78.90311275011253,
            "gamma": 60.86866320955648,
            "volume": 243.33708042396592
        },
        "sites": [
            {
                "species": [
                    {
                        "element": "K",
                        "occu": 1
                    }
                ],
                "abc": [
                    0.6192093,
                    0.23050348,
                    0.57860481
                ],
                "xyz": [
                    5.192567672218698,
                    0.8934048468531832,
                    4.6643153743423476
                ],
                "label": "K",
                "properties": {}
            },
            {
                "species": [
                    {
                        "element": "K",
                        "occu": 1
                    }
                ],
                "abc": [
                    0.3807907,
                    0.76949652,
                    0.42139519
                ],
                "xyz": [
                    5.108027967781301,
                    3.7649416831468163,
                    3.396952445657653
                ],
                "label": "K",
                "properties": {}
            },
            {
                "species": [
                    {
                        "element": "Li",
                        "occu": 1
                    }
                ],
                "abc": [
                    0.3421843,
                    0.00063832,
                    0.12217013
                ],
                "xyz": [
                    2.1907983276537224,
                    -0.05996596613860511,
                    0.984831447203911
                ],
                "label": "Li",
                "properties": {}
            },
            {
                "species": [
                    {
                        "element": "Li",
                        "occu": 1
                    }
                ],
                "abc": [
                    0.6578157,
                    0.99936168,
                    0.87782987
                ],
                "xyz": [
                    8.109797312346277,
                    4.718312496138605,
                    7.076436372796088
                ],
                "label": "Li",
                "properties": {}
            },
            {
                "species": [
                    {
                        "element": "Li",
                        "occu": 1
                    }
                ],
                "abc": [
                    0.60238227,
                    0.60495659,
                    0.9115638
                ],
                "xyz": [
                    6.702248322153917,
                    2.6591873104258,
                    7.348424180736312
                ],
                "label": "Li",
                "properties": {}
            },
            {
                "species": [
                    {
                        "element": "Li",
                        "occu": 1
                    }
                ],
                "abc": [
                    0.8861729,
                    0.66561853,
                    0.61051777
                ],
                "xyz": [
                    8.0550662493439,
                    3.129271000553812,
                    4.9215099043338455
                ],
                "label": "Li",
                "properties": {}
            },
            {
                "species": [
                    {
                        "element": "Li",
                        "occu": 1
                    }
                ],
                "abc": [
                    0.09147459,
                    0.60033746,
                    0.89163293
                ],
                "xyz": [
                    3.6781029023238467,
                    2.645533645037548,
                    7.187812258264696
                ],
                "label": "Li",
                "properties": {}
            },
            {
                "species": [
                    {
                        "element": "Li",
                        "occu": 1
                    }
                ],
                "abc": [
                    0.39761773,
                    0.39504341,
                    0.0884362
                ],
                "xyz": [
                    3.5983473178460823,
                    1.9991592195741998,
                    0.7128436392636887
                ],
                "label": "Li",
                "properties": {}
            },
            {
                "species": [
                    {
                        "element": "Li",
                        "occu": 1
                    }
                ],
                "abc": [
                    0.1138271,
                    0.33438147,
                    0.38948223
                ],
                "xyz": [
                    2.2455293906561,
                    1.529075529446188,
                    3.1397579156661544
                ],
                "label": "Li",
                "properties": {}
            },
            {
                "species": [
                    {
                        "element": "Li",
                        "occu": 1
                    }
                ],
                "abc": [
                    0.90852541,
                    0.39966254,
                    0.10836707
                ],
                "xyz": [
                    6.622492737676152,
                    2.012812884962451,
                    0.8734555617353047
                ],
                "label": "Li",
                "properties": {}
            },
            {
                "species": [
                    {
                        "element": "Nb",
                        "occu": 1
                    }
                ],
                "abc": [
                    0.14615803,
                    0.05568344,
                    0.80768934
                ],
                "xyz": [
                    2.2927747910751712,
                    -0.13034735432921185,
                    6.5111463321534755
                ],
                "label": "Nb",
                "properties": {}
            },
            {
                "species": [
                    {
                        "element": "Nb",
                        "occu": 1
                    }
                ],
                "abc": [
                    0.85384197,
                    0.94431656,
                    0.19231066
                ],
                "xyz": [
                    8.007820848924828,
                    4.788693884329211,
                    1.5501214878465248
                ],
                "label": "Nb",
                "properties": {}
            },
            {
                "species": [
                    {
                        "element": "O",
                        "occu": 1
                    }
                ],
                "abc": [
                    0.77745856,
                    0.23124809,
                    0.97631467
                ],
                "xyz": [
                    6.747716061286524,
                    0.691154971219449,
                    7.8704254051987785
                ],
                "label": "O",
                "properties": {}
            },
            {
                "species": [
                    {
                        "element": "O",
                        "occu": 1
                    }
                ],
                "abc": [
                    0.52484408,
                    0.81831956,
                    0.72219535
                ],
                "xyz": [
                    6.5655280975088495,
                    3.861794035777889,
                    5.821824489251435
                ],
                "label": "O",
                "properties": {}
            },
            {
                "species": [
                    {
                        "element": "O",
                        "occu": 1
                    }
                ],
                "abc": [
                    0.22254144,
                    0.76875191,
                    0.02368533
                ],
                "xyz": [
                    3.552879578713476,
                    3.9671915587805504,
                    0.19084241480122233
                ],
                "label": "O",
                "properties": {}
            },
            {
                "species": [
                    {
                        "element": "O",
                        "occu": 1
                    }
                ],
                "abc": [
                    0.25975908,
                    0.24624328,
                    0.95050678
                ],
                "xyz": [
                    3.7312354150644893,
                    0.7820796160327332,
                    7.662435029129416
                ],
                "label": "O",
                "properties": {}
            },
            {
                "species": [
                    {
                        "element": "O",
                        "occu": 1
                    }
                ],
                "abc": [
                    0.47515592,
                    0.18168044,
                    0.27780465
                ],
                "xyz": [
                    3.7350675424911515,
                    0.7965524942221105,
                    2.239443330748564
                ],
                "label": "O",
                "properties": {}
            },
            {
                "species": [
                    {
                        "element": "O",
                        "occu": 1
                    }
                ],
                "abc": [
                    0.93143595,
                    0.70373751,
                    0.36239699
                ],
                "xyz": [
                    8.035800816984858,
                    3.455197056955232,
                    2.9212813036580787
                ],
                "label": "O",
                "properties": {}
            },
            {
                "species": [
                    {
                        "element": "O",
                        "occu": 1
                    }
                ],
                "abc": [
                    0.01933973,
                    0.84056673,
                    0.71946402
                ],
                "xyz": [
                    3.6776474511703534,
                    3.9782999853174603,
                    5.799863164911795
                ],
                "label": "O",
                "properties": {}
            },
            {
                "species": [
                    {
                        "element": "O",
                        "occu": 1
                    }
                ],
                "abc": [
                    0.74024092,
                    0.75375672,
                    0.04949322
                ],
                "xyz": [
                    6.569360224935511,
                    3.8762669139672665,
                    0.3988327908705844
                ],
                "label": "O",
                "properties": {}
            },
            {
                "species": [
                    {
                        "element": "O",
                        "occu": 1
                    }
                ],
                "abc": [
                    0.06856405,
                    0.29626249,
                    0.63760301
                ],
                "xyz": [
                    2.2647948230151407,
                    1.2031494730447672,
                    5.139986516341921
                ],
                "label": "O",
                "properties": {}
            },
            {
                "species": [
                    {
                        "element": "O",
                        "occu": 1
                    }
                ],
                "abc": [
                    0.98066027,
                    0.15943327,
                    0.28053598
                ],
                "xyz": [
                    6.622948188829647,
                    0.6800465446825393,
                    2.2614046550882057
                ],
                "label": "O",
                "properties": {}
            }
        ]
    },
    "spacegroup": {
        "source": "spglib",
        "symbol": "P-1",
        "number": 2,
        "point_group": "-1",
        "crystal_system": "triclinic",
        "hall": "-P 1"
    },
    "dielectric": {
        "epsilon_ionic": [
            [
                9.44269079,
                0.98355971,
                -0.12588845
            ],
            [
                0.98355971,
                6.95569594,
                0.47256223
            ],
            [
                -0.12588845,
                0.47256223,
                7.90825464
            ]
        ],
        "epsilon_ionic_avg": 8.102213789999999,
        "epsilon_ionic_eig": [
            9.785381258535105,
            6.45052877766083,
            8.07073133380406
        ],
        "epsilon_electronic": [
            [
                3.5866763,
                0.05963587,
                -0.01958348
            ],
            [
                0.05963552,
                3.31930662,
                -0.00255081
            ],
            [
                -0.01958042,
                -0.00255025,
                3.45027592
            ]
        ],
        "epsilon_electronic_avg": 3.45208628,
        "epsilon_electronic_eig": [
            3.6019296756186385,
            3.306590605576092,
            3.4477385588052702
        ]
    },
    "phonon": {
        "lowest_freq": -0.08223584099100509,
        "frequency": [
            -0.08223584099100509,
            -0.06103292217158697,
            -0.03841761417269874,
            2.7893699368414633,
            2.970850843790382,
            3.1647165811738134,
            3.276228948810514,
            3.3092915761093327,
            3.9783617929761106,
            4.173692842790261,
            4.369264914865163,
            4.556809420581941,
            4.749128139637527,
            5.352422511811239,
            5.813055512708481,
            6.456042330218534,
            6.568756197927679,
            6.9831238589516085,
            7.550974376642709,
            7.700165213230557,
            8.07346471107674,
            8.395411859923584,
            8.833593345618787,
            8.979397832905102,
            9.188981062771452,
            9.407616749567872,
            9.889504170219846,
            10.228844828870855,
            10.473546618545738,
            10.604478251460048,
            10.773926237582073,
            10.944172995521896,
            11.017788509555519,
            11.334461333931598,
            11.68241351725791,
            11.733724300591971,
            11.904578605715852,
            12.389220498743322,
            12.430878050181043,
            12.637666555501657,
            12.751016312684555,
            12.946529950487172,
            13.303024669153988,
            13.431718986022066,
            13.81313837642573,
            13.906330856692373,
            14.376105264165805,
            14.494962219338065,
            14.503257028646445,
            14.613389495067189,
            14.922893053530748,
            15.57354191009752,
            15.938406626104683,
            16.56411240420205,
            16.87284837987385,
            17.238846935679256,
            17.37668057844836,
            17.4526242250206,
            18.405385085651158,
            18.416121392402157,
            18.946956094871275,
            19.250788667527736,
            19.63437707702126,
            19.930701808394918,
            22.124319413055197,
            23.5843795524526
        ]
    },
    "born_effective_charge": {
        "avg_abs_trace": 1.8594445454545452,
        "tensors": [
            [
                [
                    1.24245,
                    -0.02093,
                    -0.02341
                ],
                [
                    -0.00837,
                    1.01017,
                    0.08782
                ],
                [
                    0.00898,
                    0.05024,
                    1.41392
                ]
            ],
            [
                [
                    1.24248,
                    -0.02095,
                    -0.02344
                ],
                [
                    -0.00835,
                    1.01015,
                    0.08782
                ],
                [
                    0.00903,
                    0.05028,
                    1.41391
                ]
            ],
            [
                [
                    1.38687,
                    -0.12633,
                    0.1129
                ],
                [
                    -0.03715,
                    0.5678,
                    -0.08621
                ],
                [
                    0.06064,
                    -0.1473,
                    0.7918
                ]
            ],
            [
                [
                    1.38687,
                    -0.12632,
                    0.1129
                ],
                [
                    -0.03715,
                    0.5678,
                    -0.0862
                ],
                [
                    0.06064,
                    -0.14729,
                    0.79179
                ]
            ],
            [
                [
                    1.18747,
                    -0.22998,
                    0.16006
                ],
                [
                    -0.11209,
                    1.35908,
                    -0.03299
                ],
                [
                    0.03926,
                    0.06542,
                    0.75603
                ]
            ],
            [
                [
                    1.17069,
                    0.00313,
                    -0.00052
                ],
                [
                    -0.02659,
                    1.29619,
                    -0.01469
                ],
                [
                    -7e-05,
                    -0.12606,
                    1.36384
                ]
            ],
            [
                [
                    0.69775,
                    0.28312,
                    -0.06639
                ],
                [
                    0.10248,
                    1.30373,
                    0.01314
                ],
                [
                    -0.0358,
                    0.14643,
                    0.74131
                ]
            ],
            [
                [
                    1.18746,
                    -0.22998,
                    0.16006
                ],
                [
                    -0.11209,
                    1.35909,
                    -0.033
                ],
                [
                    0.03925,
                    0.06542,
                    0.75604
                ]
            ],
            [
                [
                    1.17068,
                    0.00313,
                    -0.00052
                ],
                [
                    -0.02659,
                    1.29619,
                    -0.01469
                ],
                [
                    -9e-05,
                    -0.12606,
                    1.36385
                ]
            ],
            [
                [
                    0.69775,
                    0.28311,
                    -0.06638
                ],
                [
                    0.10249,
                    1.30373,
                    0.01314
                ],
                [
                    -0.03579,
                    0.14643,
                    0.74133
                ]
            ],
            [
                [
                    5.29809,
                    0.34052,
                    -0.16478
                ],
                [
                    0.30625,
                    4.27701,
                    -0.03244
                ],
                [
                    -0.11783,
                    0.03271,
                    4.8168
                ]
            ],
            [
                [
                    5.29794,
                    0.34048,
                    -0.16458
                ],
                [
                    0.30638,
                    4.27708,
                    -0.03237
                ],
                [
                    -0.11802,
                    0.03303,
                    4.81653
                ]
            ],
            [
                [
                    -2.11268,
                    0.25216,
                    0.67748
                ],
                [
                    0.20931,
                    -1.9234,
                    0.09255
                ],
                [
                    0.59054,
                    0.02867,
                    -2.22456
                ]
            ],
            [
                [
                    -2.5888,
                    0.88299,
                    0.4212
                ],
                [
                    0.70627,
                    -1.89612,
                    -0.35813
                ],
                [
                    0.45082,
                    -0.39077,
                    -1.65579
                ]
            ],
            [
                [
                    -2.11273,
                    0.25224,
                    0.67751
                ],
                [
                    0.20924,
                    -1.92344,
                    0.09242
                ],
                [
                    0.59055,
                    0.02875,
                    -2.22456
                ]
            ],
            [
                [
                    -2.41445,
                    -0.51412,
                    -0.67741
                ],
                [
                    -0.46581,
                    -1.82703,
                    -0.37385
                ],
                [
                    -0.48854,
                    -0.37331,
                    -1.68363
                ]
            ],
            [
                [
                    -2.58879,
                    0.88296,
                    0.42124
                ],
                [
                    0.70626,
                    -1.89613,
                    -0.35817
                ],
                [
                    0.45067,
                    -0.39086,
                    -1.65577
                ]
            ],
            [
                [
                    -1.26756,
                    -0.05184,
                    -0.00232
                ],
                [
                    0.00415,
                    -2.3892,
                    0.98589
                ],
                [
                    -0.02525,
                    1.03896,
                    -2.55612
                ]
            ],
            [
                [
                    -2.59978,
                    -0.81864,
                    -0.43704
                ],
                [
                    -0.67839,
                    -1.77825,
                    -0.28086
                ],
                [
                    -0.48291,
                    -0.32532,
                    -1.76373
                ]
            ],
            [
                [
                    -2.41455,
                    -0.51422,
                    -0.67732
                ],
                [
                    -0.46574,
                    -1.82703,
                    -0.37387
                ],
                [
                    -0.48853,
                    -0.37344,
                    -1.68344
                ]
            ],
            [
                [
                    -1.26747,
                    -0.05195,
                    -0.00228
                ],
                [
                    0.0041,
                    -2.38907,
                    0.98563
                ],
                [
                    -0.02486,
                    1.03912,
                    -2.55592
                ]
            ],
            [
                [
                    -2.5997,
                    -0.81858,
                    -0.43696
                ],
                [
                    -0.67861,
                    -1.77835,
                    -0.28093
                ],
                [
                    -0.48266,
                    -0.32505,
                    -1.76362
                ]
            ]
        ]
    },
    "band_gap": 4.09,
    "is_direct": false,
    "formula": "KLi4NbO5"
}