{
    "mp_id": "mp-559795",
    "nelements": 4,
    "nsites": 32,
    "elements": [
        "Na",
        "O",
        "Rb",
        "Zn"
    ],
    "structure": {
        "@module": "pymatgen.core.structure",
        "@class": "Structure",
        "charge": null,
        "lattice": {
            "matrix": [
                [
                    7.00106567,
                    0.00090128,
                    -0.00071046
                ],
                [
                    -2.9049701,
                    8.86782672,
                    0.00258922
                ],
                [
                    -0.43856053,
                    -3.33705875,
                    10.60183769
                ]
            ],
            "a": 7.001065764061326,
            "b": 9.331516957167263,
            "c": 11.12327554475434,
            "alpha": 105.81670654079002,
            "beta": 92.26736319334651,
            "gamma": 108.13066262607717,
            "volume": 658.2856042871481
        },
        "sites": [
            {
                "species": [
                    {
                        "element": "Rb",
                        "occu": 1
                    }
                ],
                "abc": [
                    0.95374338,
                    0.66491286,
                    0.59703531
                ],
                "xyz": [
                    4.483831936319964,
                    3.904849710918683,
                    6.330715460972448
                ],
                "label": "Rb",
                "properties": {}
            },
            {
                "species": [
                    {
                        "element": "Rb",
                        "occu": 1
                    }
                ],
                "abc": [
                    0.56340145,
                    0.338743,
                    0.02242079
                ],
                "xyz": [
                    2.9505393898935024,
                    2.929602515620404,
                    0.2381783824178681
                ],
                "label": "Rb",
                "properties": {}
            },
            {
                "species": [
                    {
                        "element": "Rb",
                        "occu": 1
                    }
                ],
                "abc": [
                    0.0454926,
                    0.51977753,
                    0.18409056
                ],
                "xyz": [
                    -1.2721763567644078,
                    3.9950170565197305,
                    1.9530117350848368
                ],
                "label": "Rb",
                "properties": {}
            },
            {
                "species": [
                    {
                        "element": "Rb",
                        "occu": 1
                    }
                ],
                "abc": [
                    0.46470637,
                    0.48155321,
                    0.68088027
                ],
                "xyz": [
                    1.5559349249505536,
                    1.9986117905910628,
                    7.219498800778141
                ],
                "label": "Rb",
                "properties": {}
            },
            {
                "species": [
                    {
                        "element": "Rb",
                        "occu": 1
                    }
                ],
                "abc": [
                    0.43659855,
                    0.661257,
                    0.97757921
                ],
                "xyz": [
                    0.7069956501064972,
                    2.602066734379596,
                    10.365538067582133
                ],
                "label": "Rb",
                "properties": {}
            },
            {
                "species": [
                    {
                        "element": "Rb",
                        "occu": 1
                    }
                ],
                "abc": [
                    0.04625662,
                    0.33508714,
                    0.40296469
                ],
                "xyz": [
                    -0.8262968963199644,
                    1.6268195390813172,
                    4.273000989027551
                ],
                "label": "Rb",
                "properties": {}
            },
            {
                "species": [
                    {
                        "element": "Rb",
                        "occu": 1
                    }
                ],
                "abc": [
                    0.53529363,
                    0.51844679,
                    0.31911973
                ],
                "xyz": [
                    2.101600115049446,
                    3.533057459408938,
                    3.384217649221857
                ],
                "label": "Rb",
                "properties": {}
            },
            {
                "species": [
                    {
                        "element": "Rb",
                        "occu": 1
                    }
                ],
                "abc": [
                    0.03101119,
                    0.86609539,
                    0.36873764
                ],
                "xyz": [
                    -2.4605836088323407,
                    6.449912623259794,
                    3.9115170887693
                ],
                "label": "Rb",
                "properties": {}
            },
            {
                "species": [
                    {
                        "element": "Rb",
                        "occu": 1
                    }
                ],
                "abc": [
                    0.20925595,
                    0.93436746,
                    0.91117786
                ],
                "xyz": [
                    -1.6489015311305752,
                    5.245343275769871,
                    9.662430393374088
                ],
                "label": "Rb",
                "properties": {}
            },
            {
                "species": [
                    {
                        "element": "Rb",
                        "occu": 1
                    }
                ],
                "abc": [
                    0.48223439,
                    0.12228233,
                    0.68583811
                ],
                "xyz": [
                    2.72014659529826,
                    -1.2038689244900855,
                    7.271118331446129
                ],
                "label": "Rb",
                "properties": {}
            },
            {
                "species": [
                    {
                        "element": "Rb",
                        "occu": 1
                    }
                ],
                "abc": [
                    0.79074405,
                    0.06563254,
                    0.08882214
                ],
                "xyz": [
                    5.306436571130575,
                    0.28632597423012784,
                    0.9412860566259122
                ],
                "label": "Rb",
                "properties": {}
            },
            {
                "species": [
                    {
                        "element": "Rb",
                        "occu": 1
                    }
                ],
                "abc": [
                    0.51776561,
                    0.87771767,
                    0.31416189
                ],
                "xyz": [
                    0.9373884447017401,
                    6.7355381744900855,
                    3.332598118553871
                ],
                "label": "Rb",
                "properties": {}
            },
            {
                "species": [
                    {
                        "element": "Rb",
                        "occu": 1
                    }
                ],
                "abc": [
                    0.9545074,
                    0.48022247,
                    0.81590944
                ],
                "xyz": [
                    4.929711396764408,
                    1.5366521934802706,
                    8.650704714915163
                ],
                "label": "Rb",
                "properties": {}
            },
            {
                "species": [
                    {
                        "element": "Rb",
                        "occu": 1
                    }
                ],
                "abc": [
                    0.96898881,
                    0.13390461,
                    0.63126236
                ],
                "xyz": [
                    6.118118648832342,
                    -0.9182433732597939,
                    6.6921993612307
                ],
                "label": "Rb",
                "properties": {}
            },
            {
                "species": [
                    {
                        "element": "Na",
                        "occu": 1
                    }
                ],
                "abc": [
                    0.30377766,
                    0.11264212,
                    0.21639815
                ],
                "xyz": [
                    1.7046416687833008,
                    0.2770312503215385,
                    2.2942938960698966
                ],
                "label": "Na",
                "properties": {}
            },
            {
                "species": [
                    {
                        "element": "Na",
                        "occu": 1
                    }
                ],
                "abc": [
                    0.69622234,
                    0.88735788,
                    0.78360185
                ],
                "xyz": [
                    1.9528933712166996,
                    5.254637999678462,
                    8.309422553930103
                ],
                "label": "Na",
                "properties": {}
            },
            {
                "species": [
                    {
                        "element": "Zn",
                        "occu": 1
                    }
                ],
                "abc": [
                    0.57831954,
                    0.2506748,
                    0.43936507
                ],
                "xyz": [
                    3.1279621009980247,
                    0.7572748660178041,
                    4.658315338100756
                ],
                "label": "Zn",
                "properties": {}
            },
            {
                "species": [
                    {
                        "element": "Zn",
                        "occu": 1
                    }
                ],
                "abc": [
                    0.42168046,
                    0.7493252,
                    0.56063493
                ],
                "xyz": [
                    0.5295729390019752,
                    4.774394383982195,
                    5.945401111899244
                ],
                "label": "Zn",
                "properties": {}
            },
            {
                "species": [
                    {
                        "element": "Zn",
                        "occu": 1
                    }
                ],
                "abc": [
                    0.09009212,
                    0.24770345,
                    0.9399045
                ],
                "xyz": [
                    -0.5010352831167095,
                    -0.9398440651172777,
                    9.965292304979839
                ],
                "label": "Zn",
                "properties": {}
            },
            {
                "species": [
                    {
                        "element": "Zn",
                        "occu": 1
                    }
                ],
                "abc": [
                    0.90990788,
                    0.75229655,
                    0.0600955
                ],
                "xyz": [
                    4.1585703231167095,
                    6.471513315117277,
                    0.6384241450201612
                ],
                "label": "Zn",
                "properties": {}
            },
            {
                "species": [
                    {
                        "element": "O",
                        "occu": 1
                    }
                ],
                "abc": [
                    0.18623846,
                    0.82742972,
                    0.12258211
                ],
                "xyz": [
                    -1.1535505828418222,
                    6.928607530168385,
                    1.3016057165210526
                ],
                "label": "O",
                "properties": {}
            },
            {
                "species": [
                    {
                        "element": "O",
                        "occu": 1
                    }
                ],
                "abc": [
                    0.23252639,
                    0.66212689,
                    0.41669681
                ],
                "xyz": [
                    -0.478273065300867,
                    4.4812943626496935,
                    4.419301137047855
                ],
                "label": "O",
                "properties": {}
            },
            {
                "species": [
                    {
                        "element": "O",
                        "occu": 1
                    }
                ],
                "abc": [
                    0.18281932,
                    0.25007581,
                    0.10129982
                ],
                "xyz": [
                    0.5090412115333589,
                    1.8797502706359477,
                    1.074481865140897
                ],
                "label": "O",
                "properties": {}
            },
            {
                "species": [
                    {
                        "element": "O",
                        "occu": 1
                    }
                ],
                "abc": [
                    0.76747361,
                    0.33787311,
                    0.58330319
                ],
                "xyz": [
                    4.1358081053008675,
                    1.0503748873503072,
                    6.184415312952145
                ],
                "label": "O",
                "properties": {}
            },
            {
                "species": [
                    {
                        "element": "O",
                        "occu": 1
                    }
                ],
                "abc": [
                    0.30145282,
                    0.17244039,
                    0.44825375
                ],
                "xyz": [
                    1.412970410069863,
                    0.033594092789017926,
                    4.752545817369936
                ],
                "label": "O",
                "properties": {}
            },
            {
                "species": [
                    {
                        "element": "O",
                        "occu": 1
                    }
                ],
                "abc": [
                    0.72437545,
                    0.67402145,
                    0.16125467
                ],
                "xyz": [
                    3.042668002636982,
                    5.439641981766858,
                    1.7108263881310741
                ],
                "label": "O",
                "properties": {}
            },
            {
                "species": [
                    {
                        "element": "O",
                        "occu": 1
                    }
                ],
                "abc": [
                    0.81718068,
                    0.74992419,
                    0.89870018
                ],
                "xyz": [
                    3.1484938284666417,
                    3.6519189793640523,
                    9.529234584859102
                ],
                "label": "O",
                "properties": {}
            },
            {
                "species": [
                    {
                        "element": "O",
                        "occu": 1
                    }
                ],
                "abc": [
                    0.65163134,
                    0.23896142,
                    0.27797297
                ],
                "xyz": [
                    3.7460300507676814,
                    1.1920436358172704,
                    2.947180075833315
                ],
                "label": "O",
                "properties": {}
            },
            {
                "species": [
                    {
                        "element": "O",
                        "occu": 1
                    }
                ],
                "abc": [
                    0.81376154,
                    0.17257028,
                    0.87741789
                ],
                "xyz": [
                    4.811085622841822,
                    -1.396938280168385,
                    9.302110733478948
                ],
                "label": "O",
                "properties": {}
            },
            {
                "species": [
                    {
                        "element": "O",
                        "occu": 1
                    }
                ],
                "abc": [
                    0.34836866,
                    0.76103858,
                    0.72202703
                ],
                "xyz": [
                    -0.08849501076768174,
                    4.339625614182729,
                    7.656536374166684
                ],
                "label": "O",
                "properties": {}
            },
            {
                "species": [
                    {
                        "element": "O",
                        "occu": 1
                    }
                ],
                "abc": [
                    0.27562455,
                    0.32597855,
                    0.83874533
                ],
                "xyz": [
                    0.614867037363019,
                    0.09202726823314267,
                    8.892890061868925
                ],
                "label": "O",
                "properties": {}
            },
            {
                "species": [
                    {
                        "element": "O",
                        "occu": 1
                    }
                ],
                "abc": [
                    0.69854718,
                    0.82755961,
                    0.55174625
                ],
                "xyz": [
                    2.2445646299301374,
                    5.498075157210983,
                    5.851170632630064
                ],
                "label": "O",
                "properties": {}
            }
        ]
    },
    "spacegroup": {
        "source": "spglib",
        "symbol": "P-1",
        "number": 2,
        "point_group": "-1",
        "crystal_system": "triclinic",
        "hall": "-P 1"
    },
    "dielectric": {
        "epsilon_ionic": [
            [
                7.21869894,
                0.60319659,
                -0.40606145
            ],
            [
                0.60319659,
                6.95289006,
                0.32474401
            ],
            [
                -0.40606145,
                0.32474401,
                8.48508916
            ]
        ],
        "epsilon_ionic_avg": 7.552226053333331,
        "epsilon_ionic_eig": [
            6.347128108531798,
            7.690734425163941,
            8.61881562630425
        ],
        "epsilon_electronic": [
            [
                3.39213459,
                0.12447044,
                0.01981392
            ],
            [
                0.1244722,
                3.24846474,
                -0.07936175
            ],
            [
                0.01981293,
                -0.07936156,
                3.40547583
            ]
        ],
        "epsilon_electronic_avg": 3.348691720000001,
        "epsilon_electronic_eig": [
            3.1520321163476295,
            3.474522187739541,
            3.4195208559128325
        ]
    },
    "phonon": {
        "lowest_freq": -0.09527128216498783,
        "frequency": [
            -0.09527128216498783,
            -0.06899114614320431,
            -0.04956298765679428,
            0.6709864886045637,
            1.1218253992858775,
            1.210481486918614,
            1.2335780061121415,
            1.3435066867873544,
            1.3578414647937656,
            1.3737799673198348,
            1.4621899584839397,
            1.5231989899709497,
            1.5386465153824032,
            1.7507891325878593,
            1.8731227619515711,
            1.8982756378439118,
            1.9699684016145842,
            2.000144862299491,
            2.0836847435730577,
            2.1545636230700653,
            2.1564125137790446,
            2.229239577679616,
            2.247784502041834,
            2.319429760509603,
            2.423327355970281,
            2.5083550386026445,
            2.556932708703729,
            2.570970073498827,
            2.5810779739849026,
            2.6903412048496964,
            2.7889133594189284,
            2.793477551563007,
            2.8480216512017664,
            2.971681137616088,
            3.0413240151631262,
            3.0713764529004317,
            3.2083589630839056,
            3.238339474232479,
            3.271897603790898,
            3.3515458931803463,
            3.4154403329581484,
            3.4991871795875062,
            3.571247953459345,
            3.663297254592634,
            3.671207017238657,
            3.698189650960215,
            3.947757727502059,
            3.9565449980408434,
            4.036539289563797,
            4.0573518530904655,
            4.133388986712963,
            4.325084922934786,
            4.356255564637049,
            4.449350570113142,
            4.54266691685657,
            4.6225664480380875,
            4.688580235437546,
            4.853307045188308,
            5.017956371769102,
            5.102046703372093,
            5.141788155759215,
            5.240442145876903,
            5.26333074563665,
            5.378217782220189,
            5.6636387028580515,
            5.730400528022606,
            6.019996251743927,
            6.113510016476224,
            6.114131688052096,
            6.497140595172626,
            6.836879435461625,
            6.8764420113296465,
            6.930758254365725,
            7.122020841992447,
            7.135934277755766,
            7.502463327176437,
            7.537869816943405,
            7.873927633364934,
            8.13748587569216,
            8.643247187237858,
            8.733879118226369,
            8.856418741121557,
            8.906098933192544,
            9.174812683061216,
            14.473061587794314,
            14.510806477765758,
            14.5820780828991,
            14.688505945824796,
            14.87545044810779,
            14.90181399275447,
            15.298621159881321,
            15.550799936123461,
            15.906755031905305,
            15.930068555413351,
            16.453440607790387,
            16.49105773249527
        ]
    },
    "born_effective_charge": {
        "avg_abs_trace": 1.4746909375000001,
        "tensors": [
            [
                [
                    1.33829,
                    -0.00534,
                    -0.04064
                ],
                [
                    0.05113,
                    1.02922,
                    -0.05452
                ],
                [
                    -0.0658,
                    -0.02122,
                    1.03638
                ]
            ],
            [
                [
                    1.3152,
                    0.00685,
                    0.03669
                ],
                [
                    0.00747,
                    1.02265,
                    0.01586
                ],
                [
                    0.09133,
                    -0.03798,
                    1.08319
                ]
            ],
            [
                [
                    1.06772,
                    -0.08502,
                    0.11355
                ],
                [
                    -0.10048,
                    1.24845,
                    0.08218
                ],
                [
                    0.05594,
                    0.07146,
                    1.24771
                ]
            ],
            [
                [
                    1.09982,
                    -0.01085,
                    -0.11349
                ],
                [
                    -0.04013,
                    1.27925,
                    0.01219
                ],
                [
                    -0.08016,
                    -0.00953,
                    1.17112
                ]
            ],
            [
                [
                    1.31522,
                    0.00689,
                    0.03671
                ],
                [
                    0.00755,
                    1.02252,
                    0.01574
                ],
                [
                    0.09128,
                    -0.03808,
                    1.08307
                ]
            ],
            [
                [
                    1.3382,
                    -0.00535,
                    -0.04062
                ],
                [
                    0.05126,
                    1.02916,
                    -0.05467
                ],
                [
                    -0.06567,
                    -0.02121,
                    1.03648
                ]
            ],
            [
                [
                    1.09985,
                    -0.01083,
                    -0.11347
                ],
                [
                    -0.04009,
                    1.27929,
                    0.01204
                ],
                [
                    -0.08014,
                    -0.0097,
                    1.17103
                ]
            ],
            [
                [
                    1.12719,
                    0.08441,
                    -0.00377
                ],
                [
                    0.0624,
                    1.1166,
                    0.05761
                ],
                [
                    0.01572,
                    0.0478,
                    1.20514
                ]
            ],
            [
                [
                    1.15689,
                    0.05563,
                    -0.19996
                ],
                [
                    0.113,
                    1.14859,
                    -0.02554
                ],
                [
                    -0.22126,
                    -0.01978,
                    1.14972
                ]
            ],
            [
                [
                    1.17824,
                    -0.07672,
                    0.03432
                ],
                [
                    -0.05461,
                    1.17079,
                    -0.10028
                ],
                [
                    0.01393,
                    -0.07503,
                    1.20111
                ]
            ],
            [
                [
                    1.15696,
                    0.05553,
                    -0.19996
                ],
                [
                    0.11304,
                    1.14854,
                    -0.02554
                ],
                [
                    -0.22129,
                    -0.01988,
                    1.14968
                ]
            ],
            [
                [
                    1.1781,
                    -0.07677,
                    0.03429
                ],
                [
                    -0.05455,
                    1.17077,
                    -0.10028
                ],
                [
                    0.01392,
                    -0.07492,
                    1.20119
                ]
            ],
            [
                [
                    1.06773,
                    -0.08522,
                    0.11363
                ],
                [
                    -0.10054,
                    1.2485,
                    0.08226
                ],
                [
                    0.056,
                    0.07155,
                    1.24775
                ]
            ],
            [
                [
                    1.12719,
                    0.08437,
                    -0.00354
                ],
                [
                    0.06235,
                    1.11661,
                    0.05747
                ],
                [
                    0.01573,
                    0.04788,
                    1.20492
                ]
            ],
            [
                [
                    0.82562,
                    -0.00653,
                    0.12788
                ],
                [
                    -0.02141,
                    1.02134,
                    0.03363
                ],
                [
                    0.14828,
                    0.02071,
                    1.03632
                ]
            ],
            [
                [
                    0.82563,
                    -0.00654,
                    0.12788
                ],
                [
                    -0.0214,
                    1.02133,
                    0.03363
                ],
                [
                    0.14826,
                    0.02071,
                    1.03634
                ]
            ],
            [
                [
                    1.65198,
                    0.6193,
                    0.03907
                ],
                [
                    0.61371,
                    0.48984,
                    -0.18246
                ],
                [
                    0.08977,
                    -0.12917,
                    1.96472
                ]
            ],
            [
                [
                    1.65193,
                    0.61931,
                    0.03912
                ],
                [
                    0.61364,
                    0.48982,
                    -0.18247
                ],
                [
                    0.08994,
                    -0.12916,
                    1.96464
                ]
            ],
            [
                [
                    1.6449,
                    0.55313,
                    0.29757
                ],
                [
                    0.50907,
                    0.74803,
                    -0.55077
                ],
                [
                    0.26205,
                    -0.58374,
                    1.61695
                ]
            ],
            [
                [
                    1.64482,
                    0.5531,
                    0.29754
                ],
                [
                    0.50907,
                    0.74803,
                    -0.55076
                ],
                [
                    0.26184,
                    -0.58383,
                    1.61691
                ]
            ],
            [
                [
                    -2.20611,
                    -0.16669,
                    -0.2434
                ],
                [
                    -0.18148,
                    -1.64993,
                    0.15016
                ],
                [
                    -0.2622,
                    0.14291,
                    -1.9695
                ]
            ],
            [
                [
                    -1.96084,
                    -0.16642,
                    -0.27592
                ],
                [
                    -0.16646,
                    -1.62968,
                    -0.00181
                ],
                [
                    -0.27607,
                    -0.0192,
                    -2.38235
                ]
            ],
            [
                [
                    -1.94204,
                    -0.13448,
                    -0.12688
                ],
                [
                    -0.14101,
                    -1.71794,
                    0.11399
                ],
                [
                    -0.15588,
                    0.1598,
                    -2.16221
                ]
            ],
            [
                [
                    -1.96097,
                    -0.16642,
                    -0.27605
                ],
                [
                    -0.16655,
                    -1.62968,
                    -0.00197
                ],
                [
                    -0.27584,
                    -0.0191,
                    -2.38203
                ]
            ],
            [
                [
                    -2.30968,
                    -0.25301,
                    0.00783
                ],
                [
                    -0.27754,
                    -1.79766,
                    0.00617
                ],
                [
                    0.03372,
                    -0.01521,
                    -1.80905
                ]
            ],
            [
                [
                    -2.07969,
                    -0.34191,
                    0.1347
                ],
                [
                    -0.29665,
                    -1.84809,
                    0.28417
                ],
                [
                    0.11465,
                    0.34639,
                    -2.04188
                ]
            ],
            [
                [
                    -1.94198,
                    -0.1345,
                    -0.12696
                ],
                [
                    -0.1411,
                    -1.71789,
                    0.11369
                ],
                [
                    -0.1555,
                    0.15964,
                    -2.16134
                ]
            ],
            [
                [
                    -1.90725,
                    -0.07212,
                    0.21254
                ],
                [
                    -0.07694,
                    -1.63143,
                    0.16006
                ],
                [
                    0.23561,
                    0.12206,
                    -2.34795
                ]
            ],
            [
                [
                    -2.20638,
                    -0.16677,
                    -0.24348
                ],
                [
                    -0.18163,
                    -1.64997,
                    0.15011
                ],
                [
                    -0.26225,
                    0.1428,
                    -1.96948
                ]
            ],
            [
                [
                    -1.90716,
                    -0.07206,
                    0.21235
                ],
                [
                    -0.07687,
                    -1.63135,
                    0.15988
                ],
                [
                    0.23556,
                    0.12205,
                    -2.34787
                ]
            ],
            [
                [
                    -2.07974,
                    -0.34196,
                    0.13473
                ],
                [
                    -0.29661,
                    -1.84801,
                    0.2841
                ],
                [
                    0.11436,
                    0.34608,
                    -2.04158
                ]
            ],
            [
                [
                    -2.30962,
                    -0.25301,
                    0.00775
                ],
                [
                    -0.27764,
                    -1.7977,
                    0.00616
                ],
                [
                    0.03415,
                    -0.01508,
                    -1.80912
                ]
            ]
        ]
    },
    "band_gap": 1.8176999999999999,
    "is_direct": false,
    "formula": "Rb7NaZn2O6"
}