{
    "mp_id": "mp-5152",
    "nelements": 3,
    "nsites": 32,
    "elements": [
        "La",
        "O",
        "Si"
    ],
    "structure": {
        "@module": "pymatgen.core.structure",
        "@class": "Structure",
        "charge": null,
        "lattice": {
            "matrix": [
                [
                    9.2621206,
                    0.0,
                    0.00171675
                ],
                [
                    0.0,
                    7.53487981,
                    0.0
                ],
                [
                    -2.24276737,
                    0.0,
                    6.59927853
                ]
            ],
            "a": 9.26212075910128,
            "b": 7.53487981,
            "c": 6.969970056783292,
            "alpha": 90.0,
            "beta": 108.75972912942639,
            "gamma": 90.0,
            "volume": 460.5858330277766
        },
        "sites": [
            {
                "species": [
                    {
                        "element": "La",
                        "occu": 1
                    }
                ],
                "abc": [
                    0.48788518,
                    0.87485514,
                    0.2664992
                ],
                "xyz": [
                    3.921155666221604,
                    6.591928331060723,
                    1.7595400257049412
                ],
                "label": "La",
                "properties": {}
            },
            {
                "species": [
                    {
                        "element": "La",
                        "occu": 1
                    }
                ],
                "abc": [
                    0.51211482,
                    0.37485514,
                    0.2335008
                ],
                "xyz": [
                    4.219581248778395,
                    2.8244884260607233,
                    1.5418159892950591
                ],
                "label": "La",
                "properties": {}
            },
            {
                "species": [
                    {
                        "element": "La",
                        "occu": 1
                    }
                ],
                "abc": [
                    0.51211482,
                    0.12514486,
                    0.7335008
                ],
                "xyz": [
                    3.0981975637783954,
                    0.9429514789392766,
                    4.841455254295059
                ],
                "label": "La",
                "properties": {}
            },
            {
                "species": [
                    {
                        "element": "La",
                        "occu": 1
                    }
                ],
                "abc": [
                    0.48788518,
                    0.62514486,
                    0.7664992
                ],
                "xyz": [
                    2.7997719812216033,
                    4.710391383939276,
                    5.059179290704942
                ],
                "label": "La",
                "properties": {}
            },
            {
                "species": [
                    {
                        "element": "La",
                        "occu": 1
                    }
                ],
                "abc": [
                    0.88913042,
                    0.34351467,
                    0.09416913
                ],
                "xyz": [
                    8.024033727143362,
                    2.5883417514218126,
                    0.622974732446314
                ],
                "label": "La",
                "properties": {}
            },
            {
                "species": [
                    {
                        "element": "La",
                        "occu": 1
                    }
                ],
                "abc": [
                    0.11086958,
                    0.84351467,
                    0.40583087
                ],
                "xyz": [
                    0.11670318785663591,
                    6.355781656421812,
                    2.6783812825536866
                ],
                "label": "La",
                "properties": {}
            },
            {
                "species": [
                    {
                        "element": "La",
                        "occu": 1
                    }
                ],
                "abc": [
                    0.11086958,
                    0.65648533,
                    0.90583087
                ],
                "xyz": [
                    -1.0046804971433643,
                    4.946538058578187,
                    5.978020547553686
                ],
                "label": "La",
                "properties": {}
            },
            {
                "species": [
                    {
                        "element": "La",
                        "occu": 1
                    }
                ],
                "abc": [
                    0.88913042,
                    0.15648533,
                    0.59416913
                ],
                "xyz": [
                    6.902650042143362,
                    1.1790981535781873,
                    3.9226139974463146
                ],
                "label": "La",
                "properties": {}
            },
            {
                "species": [
                    {
                        "element": "Si",
                        "occu": 1
                    }
                ],
                "abc": [
                    0.79892222,
                    0.92386768,
                    0.04255443
                ],
                "xyz": [
                    7.304274264606782,
                    6.9612319291435405,
                    0.28220008597657287
                ],
                "label": "Si",
                "properties": {}
            },
            {
                "species": [
                    {
                        "element": "Si",
                        "occu": 1
                    }
                ],
                "abc": [
                    0.20107778,
                    0.42386768,
                    0.45744557
                ],
                "xyz": [
                    0.8364626503932169,
                    3.1937920241435407,
                    3.0191559290234276
                ],
                "label": "Si",
                "properties": {}
            },
            {
                "species": [
                    {
                        "element": "Si",
                        "occu": 1
                    }
                ],
                "abc": [
                    0.20107778,
                    0.07613232,
                    0.95744557
                ],
                "xyz": [
                    -0.2849210346067832,
                    0.5736478808564592,
                    6.318795194023427
                ],
                "label": "Si",
                "properties": {}
            },
            {
                "species": [
                    {
                        "element": "Si",
                        "occu": 1
                    }
                ],
                "abc": [
                    0.79892222,
                    0.57613232,
                    0.54255443
                ],
                "xyz": [
                    6.182890579606783,
                    4.341087785856459,
                    3.581839350976573
                ],
                "label": "Si",
                "properties": {}
            },
            {
                "species": [
                    {
                        "element": "O",
                        "occu": 1
                    }
                ],
                "abc": [
                    0.61203904,
                    0.12609584,
                    0.45302462
                ],
                "xyz": [
                    4.652750564845574,
                    0.9501169989409902,
                    2.9906863663493284
                ],
                "label": "O",
                "properties": {}
            },
            {
                "species": [
                    {
                        "element": "O",
                        "occu": 1
                    }
                ],
                "abc": [
                    0.38796096,
                    0.62609584,
                    0.04697538
                ],
                "xyz": [
                    3.4879863501544257,
                    4.71755690394099,
                    0.3106696486506714
                ],
                "label": "O",
                "properties": {}
            },
            {
                "species": [
                    {
                        "element": "O",
                        "occu": 1
                    }
                ],
                "abc": [
                    0.38796096,
                    0.87390416,
                    0.54697538
                ],
                "xyz": [
                    2.366602665154425,
                    6.58476281105901,
                    3.610308913650672
                ],
                "label": "O",
                "properties": {}
            },
            {
                "species": [
                    {
                        "element": "O",
                        "occu": 1
                    }
                ],
                "abc": [
                    0.61203904,
                    0.37390416,
                    0.95302462
                ],
                "xyz": [
                    3.5313668798455744,
                    2.8173229060590095,
                    6.290325631349329
                ],
                "label": "O",
                "properties": {}
            },
            {
                "species": [
                    {
                        "element": "O",
                        "occu": 1
                    }
                ],
                "abc": [
                    0.91024651,
                    0.75641025,
                    0.05363622
                ],
                "xyz": [
                    8.310519387282964,
                    5.699460320802052,
                    0.3555230207723991
                ],
                "label": "O",
                "properties": {}
            },
            {
                "species": [
                    {
                        "element": "O",
                        "occu": 1
                    }
                ],
                "abc": [
                    0.08975349,
                    0.25641025,
                    0.44636378
                ],
                "xyz": [
                    -0.16978247228296472,
                    1.9320204158020524,
                    2.945832994227601
                ],
                "label": "O",
                "properties": {}
            },
            {
                "species": [
                    {
                        "element": "O",
                        "occu": 1
                    }
                ],
                "abc": [
                    0.08975349,
                    0.24358975,
                    0.94636378
                ],
                "xyz": [
                    -1.2911661572829645,
                    1.8354194891979474,
                    6.2454722592276015
                ],
                "label": "O",
                "properties": {}
            },
            {
                "species": [
                    {
                        "element": "O",
                        "occu": 1
                    }
                ],
                "abc": [
                    0.91024651,
                    0.74358975,
                    0.55363622
                ],
                "xyz": [
                    7.1891357022829645,
                    5.602859394197948,
                    3.6551622857723993
                ],
                "label": "O",
                "properties": {}
            },
            {
                "species": [
                    {
                        "element": "O",
                        "occu": 1
                    }
                ],
                "abc": [
                    0.61854172,
                    0.86779367,
                    0.9934509
                ],
                "xyz": [
                    3.500928744554298,
                    6.538721003328802,
                    6.557121076476987
                ],
                "label": "O",
                "properties": {}
            },
            {
                "species": [
                    {
                        "element": "O",
                        "occu": 1
                    }
                ],
                "abc": [
                    0.38145828,
                    0.36779367,
                    0.5065491
                ],
                "xyz": [
                    2.3970408004457004,
                    2.7712810983288025,
                    3.343513468523013
                ],
                "label": "O",
                "properties": {}
            },
            {
                "species": [
                    {
                        "element": "O",
                        "occu": 1
                    }
                ],
                "abc": [
                    0.38145828,
                    0.13220633,
                    0.0065491
                ],
                "xyz": [
                    3.5184244854457005,
                    0.9961588066711974,
                    0.04387420352301301
                ],
                "label": "O",
                "properties": {}
            },
            {
                "species": [
                    {
                        "element": "O",
                        "occu": 1
                    }
                ],
                "abc": [
                    0.61854172,
                    0.63220633,
                    0.4934509
                ],
                "xyz": [
                    4.622312429554298,
                    4.7635987116711975,
                    3.2574818114769872
                ],
                "label": "O",
                "properties": {}
            },
            {
                "species": [
                    {
                        "element": "O",
                        "occu": 1
                    }
                ],
                "abc": [
                    0.79109614,
                    0.42512328,
                    0.36628182
                ],
                "xyz": [
                    6.50574294075427,
                    3.2032528192329766,
                    2.4185538649536698
                ],
                "label": "O",
                "properties": {}
            },
            {
                "species": [
                    {
                        "element": "O",
                        "occu": 1
                    }
                ],
                "abc": [
                    0.20890386,
                    0.92512328,
                    0.13371818
                ],
                "xyz": [
                    1.6349939742457291,
                    6.970692724232976,
                    0.8828021500463303
                ],
                "label": "O",
                "properties": {}
            },
            {
                "species": [
                    {
                        "element": "O",
                        "occu": 1
                    }
                ],
                "abc": [
                    0.20890386,
                    0.57487672,
                    0.63371818
                ],
                "xyz": [
                    0.513610289245729,
                    4.331626990767023,
                    4.1824414150463305
                ],
                "label": "O",
                "properties": {}
            },
            {
                "species": [
                    {
                        "element": "O",
                        "occu": 1
                    }
                ],
                "abc": [
                    0.79109614,
                    0.07487672,
                    0.86628182
                ],
                "xyz": [
                    5.384359255754269,
                    0.5641870857670231,
                    5.7181931299536695
                ],
                "label": "O",
                "properties": {}
            },
            {
                "species": [
                    {
                        "element": "O",
                        "occu": 1
                    }
                ],
                "abc": [
                    0.86660402,
                    0.46167881,
                    0.7540089
                ],
                "xyz": [
                    6.335524388075218,
                    3.478694344173826,
                    4.977402487650252
                ],
                "label": "O",
                "properties": {}
            },
            {
                "species": [
                    {
                        "element": "O",
                        "occu": 1
                    }
                ],
                "abc": [
                    0.13339598,
                    0.96167881,
                    0.7459911
                ],
                "xyz": [
                    -0.4375548430752192,
                    7.246134249173826,
                    4.923232057349749
                ],
                "label": "O",
                "properties": {}
            },
            {
                "species": [
                    {
                        "element": "O",
                        "occu": 1
                    }
                ],
                "abc": [
                    0.13339598,
                    0.53832119,
                    0.2459911
                ],
                "xyz": [
                    0.6838288419247809,
                    4.056185465826173,
                    1.6235927923497482
                ],
                "label": "O",
                "properties": {}
            },
            {
                "species": [
                    {
                        "element": "O",
                        "occu": 1
                    }
                ],
                "abc": [
                    0.86660402,
                    0.03832119,
                    0.2540089
                ],
                "xyz": [
                    7.456908073075218,
                    0.28874556082617386,
                    1.6777632226502521
                ],
                "label": "O",
                "properties": {}
            }
        ]
    },
    "spacegroup": {
        "source": "spglib",
        "symbol": "P2_1/c",
        "number": 14,
        "point_group": "2/m",
        "crystal_system": "monoclinic",
        "hall": "-P 2ybc"
    },
    "dielectric": {
        "epsilon_ionic": [
            [
                9.71404984,
                -0.0,
                -0.14656035
            ],
            [
                -0.0,
                10.26226572,
                -0.0
            ],
            [
                -0.14656035,
                -0.0,
                12.17025853
            ]
        ],
        "epsilon_ionic_avg": 10.715524696666668,
        "epsilon_ionic_eig": [
            9.705335597494134,
            12.178972772505864,
            10.26226572
        ],
        "epsilon_electronic": [
            [
                3.87001081,
                0.0,
                0.04965577
            ],
            [
                0.0,
                3.87924495,
                0.0
            ],
            [
                0.04965084,
                0.0,
                4.01097961
            ]
        ],
        "epsilon_electronic_avg": 3.920078456666667,
        "epsilon_electronic_eig": [
            3.8542774546667347,
            4.026712965333265,
            3.87924495
        ]
    },
    "phonon": {
        "lowest_freq": -0.2008742033402057,
        "frequency": [
            -0.2008742033402057,
            -0.03398031665340144,
            -0.031038727518473707,
            2.594404016030866,
            2.7530692644547052,
            2.839382804747111,
            2.870030243218064,
            2.8883919208036284,
            3.0915083096618945,
            3.152468853459311,
            3.1689932546287136,
            3.2121986048900357,
            3.394951935619198,
            3.495282130899011,
            4.0963845860366295,
            4.249706008870072,
            4.254369871286943,
            4.412996077142429,
            4.483994821971825,
            4.551282400066412,
            4.5515700467423645,
            4.703984033461012,
            4.8980967416597805,
            5.092743053128272,
            5.111514492612655,
            5.2172592270188884,
            5.334523811333484,
            5.588983499776674,
            5.602030488893336,
            5.666065036204038,
            5.713167169085278,
            5.996819107997391,
            6.377367406370524,
            6.396678620634894,
            6.405213167509719,
            6.545798503185933,
            6.748604225360219,
            6.776937188983013,
            6.830494108899394,
            7.134223204562611,
            7.1559218165697835,
            7.187208820910325,
            7.3366731179665825,
            7.370106450296183,
            7.597601979186688,
            7.825326201710098,
            7.874622926499788,
            7.931016443272639,
            8.803802529294693,
            8.871390850121358,
            9.064146221099303,
            9.435833699926452,
            9.588256439329744,
            9.687107988608046,
            9.71564880999397,
            10.0496988153284,
            10.469090297053766,
            10.666874898066805,
            10.694757574910001,
            10.991166274687057,
            11.19695846585161,
            11.88938356780739,
            12.02210671703665,
            12.06187101239272,
            12.142868802727437,
            13.279788786256063,
            13.351242184876345,
            13.402716518443683,
            13.62655632366444,
            13.721444795918341,
            13.846030259359496,
            14.816425544985279,
            14.83580799099085,
            14.892262733232593,
            15.056981537320112,
            15.062455886058661,
            15.674271897761098,
            15.684076709270379,
            16.024229493430877,
            16.026962097953458,
            24.59511044431587,
            24.716669126390073,
            24.746023561619193,
            24.76558150346824,
            24.889516661079895,
            24.943821645557826,
            25.026905134873314,
            25.181289210803726,
            26.13750027752835,
            26.421524955785152,
            26.491943699035044,
            26.738060443301347,
            28.460465148810087,
            28.88233666009744,
            29.157204468498843,
            29.316754640080653
        ]
    },
    "born_effective_charge": {
        "avg_abs_trace": 2.8185745833333335,
        "tensors": [
            [
                [
                    3.54895,
                    0.03636,
                    -0.10253
                ],
                [
                    0.20878,
                    4.21875,
                    0.35953
                ],
                [
                    -0.10945,
                    0.39234,
                    4.3062
                ]
            ],
            [
                [
                    3.54894,
                    -0.03635,
                    -0.10267
                ],
                [
                    -0.20878,
                    4.21875,
                    -0.35953
                ],
                [
                    -0.10949,
                    -0.39231,
                    4.30629
                ]
            ],
            [
                [
                    3.54894,
                    0.03635,
                    -0.10267
                ],
                [
                    0.2086,
                    4.21888,
                    0.35948
                ],
                [
                    -0.10949,
                    0.39231,
                    4.30629
                ]
            ],
            [
                [
                    3.54895,
                    -0.03636,
                    -0.10253
                ],
                [
                    -0.2086,
                    4.21888,
                    -0.35948
                ],
                [
                    -0.10945,
                    -0.39234,
                    4.3062
                ]
            ],
            [
                [
                    4.34976,
                    0.11043,
                    -0.10559
                ],
                [
                    0.05027,
                    3.58475,
                    0.06493
                ],
                [
                    -0.11807,
                    0.05366,
                    4.42201
                ]
            ],
            [
                [
                    4.3497,
                    -0.11051,
                    -0.1057
                ],
                [
                    -0.05027,
                    3.58475,
                    -0.06493
                ],
                [
                    -0.11795,
                    -0.05336,
                    4.42217
                ]
            ],
            [
                [
                    4.3497,
                    0.11051,
                    -0.1057
                ],
                [
                    0.05038,
                    3.58472,
                    0.0648
                ],
                [
                    -0.11795,
                    0.05336,
                    4.42217
                ]
            ],
            [
                [
                    4.34976,
                    -0.11043,
                    -0.10559
                ],
                [
                    -0.05038,
                    3.58472,
                    -0.0648
                ],
                [
                    -0.11807,
                    -0.05366,
                    4.42201
                ]
            ],
            [
                [
                    3.245,
                    -0.26787,
                    0.43186
                ],
                [
                    -0.03221,
                    3.21756,
                    -0.1348
                ],
                [
                    0.43414,
                    -0.17466,
                    2.92983
                ]
            ],
            [
                [
                    3.24494,
                    0.2679,
                    0.43186
                ],
                [
                    0.03221,
                    3.21756,
                    0.1348
                ],
                [
                    0.43415,
                    0.17464,
                    2.92988
                ]
            ],
            [
                [
                    3.24494,
                    -0.2679,
                    0.43186
                ],
                [
                    -0.03219,
                    3.21745,
                    -0.13479
                ],
                [
                    0.43415,
                    -0.17464,
                    2.92988
                ]
            ],
            [
                [
                    3.245,
                    0.26787,
                    0.43186
                ],
                [
                    0.03219,
                    3.21745,
                    0.13479
                ],
                [
                    0.43414,
                    0.17466,
                    2.92983
                ]
            ],
            [
                [
                    -2.57876,
                    -0.36049,
                    -0.14449
                ],
                [
                    -0.30256,
                    -2.66144,
                    -0.0503
                ],
                [
                    -0.13832,
                    -0.0033,
                    -2.70733
                ]
            ],
            [
                [
                    -2.57877,
                    0.36051,
                    -0.14445
                ],
                [
                    0.30256,
                    -2.66144,
                    0.0503
                ],
                [
                    -0.13825,
                    0.00325,
                    -2.70737
                ]
            ],
            [
                [
                    -2.57877,
                    -0.36051,
                    -0.14445
                ],
                [
                    -0.30253,
                    -2.66144,
                    -0.05002
                ],
                [
                    -0.13825,
                    -0.00325,
                    -2.70737
                ]
            ],
            [
                [
                    -2.57876,
                    0.36049,
                    -0.14449
                ],
                [
                    0.30253,
                    -2.66144,
                    0.05002
                ],
                [
                    -0.13832,
                    0.0033,
                    -2.70733
                ]
            ],
            [
                [
                    -2.29226,
                    0.59506,
                    -0.07161
                ],
                [
                    0.63652,
                    -2.09562,
                    -0.16651
                ],
                [
                    -0.05117,
                    -0.19211,
                    -1.78558
                ]
            ],
            [
                [
                    -2.29225,
                    -0.59496,
                    -0.07159
                ],
                [
                    -0.63652,
                    -2.09562,
                    0.16651
                ],
                [
                    -0.05116,
                    0.19212,
                    -1.78548
                ]
            ],
            [
                [
                    -2.29225,
                    0.59496,
                    -0.07159
                ],
                [
                    0.6365,
                    -2.0954,
                    -0.16657
                ],
                [
                    -0.05116,
                    -0.19212,
                    -1.78548
                ]
            ],
            [
                [
                    -2.29226,
                    -0.59506,
                    -0.07161
                ],
                [
                    -0.6365,
                    -2.0954,
                    0.16657
                ],
                [
                    -0.05117,
                    0.19211,
                    -1.78558
                ]
            ],
            [
                [
                    -2.50978,
                    -0.39462,
                    -0.1036
                ],
                [
                    -0.4584,
                    -2.01688,
                    -0.13373
                ],
                [
                    -0.09561,
                    -0.08107,
                    -2.01362
                ]
            ],
            [
                [
                    -2.50962,
                    0.39461,
                    -0.10356
                ],
                [
                    0.4584,
                    -2.01688,
                    0.13373
                ],
                [
                    -0.09571,
                    0.08103,
                    -2.01367
                ]
            ],
            [
                [
                    -2.50962,
                    -0.39461,
                    -0.10356
                ],
                [
                    -0.45836,
                    -2.0169,
                    -0.13365
                ],
                [
                    -0.09571,
                    -0.08103,
                    -2.01367
                ]
            ],
            [
                [
                    -2.50978,
                    0.39462,
                    -0.1036
                ],
                [
                    0.45836,
                    -2.0169,
                    0.13365
                ],
                [
                    -0.09561,
                    0.08107,
                    -2.01362
                ]
            ],
            [
                [
                    -2.15691,
                    0.21549,
                    0.13904
                ],
                [
                    0.25666,
                    -1.98825,
                    -0.39623
                ],
                [
                    0.13998,
                    -0.43038,
                    -2.44876
                ]
            ],
            [
                [
                    -2.15692,
                    -0.21548,
                    0.13909
                ],
                [
                    -0.25666,
                    -1.98825,
                    0.39623
                ],
                [
                    0.14,
                    0.43015,
                    -2.44882
                ]
            ],
            [
                [
                    -2.15692,
                    0.21548,
                    0.13909
                ],
                [
                    0.25656,
                    -1.9883,
                    -0.39624
                ],
                [
                    0.14,
                    -0.43015,
                    -2.44882
                ]
            ],
            [
                [
                    -2.15691,
                    -0.21549,
                    0.13904
                ],
                [
                    -0.25656,
                    -1.9883,
                    0.39624
                ],
                [
                    0.13998,
                    0.43038,
                    -2.44876
                ]
            ],
            [
                [
                    -1.60601,
                    -0.28499,
                    -0.04304
                ],
                [
                    -0.20272,
                    -2.25904,
                    0.25965
                ],
                [
                    -0.06147,
                    0.25892,
                    -2.70287
                ]
            ],
            [
                [
                    -1.60602,
                    0.28505,
                    -0.04301
                ],
                [
                    0.20272,
                    -2.25904,
                    -0.25965
                ],
                [
                    -0.06164,
                    -0.2591,
                    -2.70289
                ]
            ],
            [
                [
                    -1.60602,
                    -0.28505,
                    -0.04301
                ],
                [
                    -0.20262,
                    -2.25884,
                    0.25974
                ],
                [
                    -0.06164,
                    0.2591,
                    -2.70289
                ]
            ],
            [
                [
                    -1.60601,
                    0.28499,
                    -0.04304
                ],
                [
                    0.20262,
                    -2.25884,
                    -0.25974
                ],
                [
                    -0.06147,
                    -0.25892,
                    -2.70287
                ]
            ]
        ]
    },
    "band_gap": 4.5903,
    "is_direct": false,
    "formula": "La2SiO5"
}