{
    "mp_id": "mp-540635",
    "nelements": 4,
    "nsites": 28,
    "elements": [
        "Ba",
        "Ge",
        "O",
        "Sn"
    ],
    "structure": {
        "@module": "pymatgen.core.structure",
        "@class": "Structure",
        "charge": null,
        "lattice": {
            "matrix": [
                [
                    6.95396359,
                    0.0,
                    0.0
                ],
                [
                    -3.4769818,
                    6.02230878,
                    0.0
                ],
                [
                    0.0,
                    0.0,
                    10.40605732
                ]
            ],
            "a": 6.95396359,
            "b": 6.953963292914073,
            "c": 10.40605732,
            "alpha": 90.0,
            "beta": 90.0,
            "gamma": 120.00000146079586,
            "volume": 435.7944002274835
        },
        "sites": [
            {
                "species": [
                    {
                        "element": "Ba",
                        "occu": 1
                    }
                ],
                "abc": [
                    0.666667,
                    0.333333,
                    0.0
                ],
                "xyz": [
                    3.4769852703151294,
                    2.00743425256374,
                    0.0
                ],
                "label": "Ba",
                "properties": {}
            },
            {
                "species": [
                    {
                        "element": "Ba",
                        "occu": 1
                    }
                ],
                "abc": [
                    0.666667,
                    0.333333,
                    0.5
                ],
                "xyz": [
                    3.4769852703151294,
                    2.00743425256374,
                    5.20302866
                ],
                "label": "Ba",
                "properties": {}
            },
            {
                "species": [
                    {
                        "element": "Sn",
                        "occu": 1
                    }
                ],
                "abc": [
                    0.333333,
                    0.666667,
                    0.0
                ],
                "xyz": [
                    -3.480315130310885e-06,
                    4.014874527436261,
                    0.0
                ],
                "label": "Sn",
                "properties": {}
            },
            {
                "species": [
                    {
                        "element": "Sn",
                        "occu": 1
                    }
                ],
                "abc": [
                    0.333333,
                    0.666667,
                    0.5
                ],
                "xyz": [
                    -3.480315130310885e-06,
                    4.014874527436261,
                    5.20302866
                ],
                "label": "Sn",
                "properties": {}
            },
            {
                "species": [
                    {
                        "element": "Ge",
                        "occu": 1
                    }
                ],
                "abc": [
                    0.07426115,
                    0.29642579,
                    0.25
                ],
                "xyz": [
                    -0.5142577436290936,
                    1.7851676377354364,
                    2.60151433
                ],
                "label": "Ge",
                "properties": {}
            },
            {
                "species": [
                    {
                        "element": "Ge",
                        "occu": 1
                    }
                ],
                "abc": [
                    0.22216465,
                    0.92573885,
                    0.25
                ],
                "xyz": [
                    -1.6738522459178364,
                    5.575085204342104,
                    2.60151433
                ],
                "label": "Ge",
                "properties": {}
            },
            {
                "species": [
                    {
                        "element": "Ge",
                        "occu": 1
                    }
                ],
                "abc": [
                    0.70357421,
                    0.77783535,
                    0.25
                ],
                "xyz": [
                    2.1881100838563836,
                    4.684364657699374,
                    2.60151433
                ],
                "label": "Ge",
                "properties": {}
            },
            {
                "species": [
                    {
                        "element": "Ge",
                        "occu": 1
                    }
                ],
                "abc": [
                    0.70357421,
                    0.92573885,
                    0.75
                ],
                "xyz": [
                    1.673852306200084,
                    5.575085204342104,
                    7.80454299
                ],
                "label": "Ge",
                "properties": {}
            },
            {
                "species": [
                    {
                        "element": "Ge",
                        "occu": 1
                    }
                ],
                "abc": [
                    0.22216465,
                    0.29642579,
                    0.75
                ],
                "xyz": [
                    0.5142578102044713,
                    1.7851676377354364,
                    7.80454299
                ],
                "label": "Ge",
                "properties": {}
            },
            {
                "species": [
                    {
                        "element": "Ge",
                        "occu": 1
                    }
                ],
                "abc": [
                    0.07426115,
                    0.77783535,
                    0.75
                ],
                "xyz": [
                    -2.1881100220951017,
                    4.684364657699374,
                    7.80454299
                ],
                "label": "Ge",
                "properties": {}
            },
            {
                "species": [
                    {
                        "element": "O",
                        "occu": 1
                    }
                ],
                "abc": [
                    0.2751668,
                    0.20772573,
                    0.25
                ],
                "xyz": [
                    1.1912413257750978,
                    1.2509884876109094,
                    2.60151433
                ],
                "label": "O",
                "properties": {}
            },
            {
                "species": [
                    {
                        "element": "O",
                        "occu": 1
                    }
                ],
                "abc": [
                    0.93255893,
                    0.7248332,
                    0.25
                ],
                "xyz": [
                    3.964749000313599,
                    4.365169344395496,
                    2.60151433
                ],
                "label": "O",
                "properties": {}
            },
            {
                "species": [
                    {
                        "element": "O",
                        "occu": 1
                    }
                ],
                "abc": [
                    0.79227427,
                    0.06744107,
                    0.25
                ],
                "xyz": [
                    5.274955053911303,
                    0.40615094799359464,
                    2.60151433
                ],
                "label": "O",
                "properties": {}
            },
            {
                "species": [
                    {
                        "element": "O",
                        "occu": 1
                    }
                ],
                "abc": [
                    0.79227427,
                    0.7248332,
                    0.75
                ],
                "xyz": [
                    2.9892145824380694,
                    4.365169344395496,
                    7.80454299
                ],
                "label": "O",
                "properties": {}
            },
            {
                "species": [
                    {
                        "element": "O",
                        "occu": 1
                    }
                ],
                "abc": [
                    0.93255893,
                    0.20772573,
                    0.75
                ],
                "xyz": [
                    5.762722262147645,
                    1.2509884876109094,
                    7.80454299
                ],
                "label": "O",
                "properties": {}
            },
            {
                "species": [
                    {
                        "element": "O",
                        "occu": 1
                    }
                ],
                "abc": [
                    0.2751668,
                    0.06744107,
                    0.75
                ],
                "xyz": [
                    1.6790085354142859,
                    0.40615094799359464,
                    7.80454299
                ],
                "label": "O",
                "properties": {}
            },
            {
                "species": [
                    {
                        "element": "O",
                        "occu": 1
                    }
                ],
                "abc": [
                    0.07252096,
                    0.43386206,
                    0.10782035
                ],
                "xyz": [
                    -1.0042223709786615,
                    2.612851293246887,
                    1.121984742362462
                ],
                "label": "O",
                "properties": {}
            },
            {
                "species": [
                    {
                        "element": "O",
                        "occu": 1
                    }
                ],
                "abc": [
                    0.3613411,
                    0.92747904,
                    0.39217965
                ],
                "xyz": [
                    -0.712074888990923,
                    5.585565165857972,
                    4.081043917637538
                ],
                "label": "O",
                "properties": {}
            },
            {
                "species": [
                    {
                        "element": "O",
                        "occu": 1
                    }
                ],
                "abc": [
                    0.56613794,
                    0.6386589,
                    0.39217965
                ],
                "xyz": [
                    1.716297249969584,
                    3.846201100895142,
                    4.081043917637538
                ],
                "label": "O",
                "properties": {}
            },
            {
                "species": [
                    {
                        "element": "O",
                        "occu": 1
                    }
                ],
                "abc": [
                    0.56613794,
                    0.6386589,
                    0.10782035
                ],
                "xyz": [
                    1.716297249969584,
                    3.846201100895142,
                    1.121984742362462
                ],
                "label": "O",
                "properties": {}
            },
            {
                "species": [
                    {
                        "element": "O",
                        "occu": 1
                    }
                ],
                "abc": [
                    0.3613411,
                    0.92747904,
                    0.10782035
                ],
                "xyz": [
                    -0.712074888990923,
                    5.585565165857972,
                    1.121984742362462
                ],
                "label": "O",
                "properties": {}
            },
            {
                "species": [
                    {
                        "element": "O",
                        "occu": 1
                    }
                ],
                "abc": [
                    0.56613794,
                    0.92747904,
                    0.89217965
                ],
                "xyz": [
                    0.7120748797161318,
                    5.585565165857972,
                    9.284072577637538
                ],
                "label": "O",
                "properties": {}
            },
            {
                "species": [
                    {
                        "element": "O",
                        "occu": 1
                    }
                ],
                "abc": [
                    0.3613411,
                    0.43386206,
                    0.89217965
                ],
                "xyz": [
                    1.0042223666400412,
                    2.612851293246887,
                    9.284072577637538
                ],
                "label": "O",
                "properties": {}
            },
            {
                "species": [
                    {
                        "element": "O",
                        "occu": 1
                    }
                ],
                "abc": [
                    0.07252096,
                    0.6386589,
                    0.89217965
                ],
                "xyz": [
                    -1.7162972563561736,
                    3.846201100895142,
                    9.284072577637538
                ],
                "label": "O",
                "properties": {}
            },
            {
                "species": [
                    {
                        "element": "O",
                        "occu": 1
                    }
                ],
                "abc": [
                    0.3613411,
                    0.43386206,
                    0.60782035
                ],
                "xyz": [
                    1.0042223666400412,
                    2.612851293246887,
                    6.325013402362463
                ],
                "label": "O",
                "properties": {}
            },
            {
                "species": [
                    {
                        "element": "O",
                        "occu": 1
                    }
                ],
                "abc": [
                    0.07252096,
                    0.6386589,
                    0.60782035
                ],
                "xyz": [
                    -1.7162972563561736,
                    3.846201100895142,
                    6.325013402362463
                ],
                "label": "O",
                "properties": {}
            },
            {
                "species": [
                    {
                        "element": "O",
                        "occu": 1
                    }
                ],
                "abc": [
                    0.07252096,
                    0.43386206,
                    0.39217965
                ],
                "xyz": [
                    -1.0042223709786615,
                    2.612851293246887,
                    4.081043917637538
                ],
                "label": "O",
                "properties": {}
            },
            {
                "species": [
                    {
                        "element": "O",
                        "occu": 1
                    }
                ],
                "abc": [
                    0.56613794,
                    0.92747904,
                    0.60782035
                ],
                "xyz": [
                    0.7120748797161318,
                    5.585565165857972,
                    6.325013402362463
                ],
                "label": "O",
                "properties": {}
            }
        ]
    },
    "spacegroup": {
        "source": "spglib",
        "symbol": "P-6c2",
        "number": 188,
        "point_group": "-6m2",
        "crystal_system": "hexagonal",
        "hall": "P -6c 2"
    },
    "dielectric": {
        "epsilon_ionic": [
            [
                5.0564776,
                8.28e-05,
                -0.0
            ],
            [
                8.28e-05,
                5.05656042,
                -0.0
            ],
            [
                -0.0,
                -0.0,
                8.01699066
            ]
        ],
        "epsilon_ionic_avg": 6.043342893333334,
        "epsilon_ionic_eig": [
            5.056426432313163,
            5.056611587686837,
            8.01699066
        ],
        "epsilon_electronic": [
            [
                3.29021292,
                -2.7e-07,
                0.0
            ],
            [
                -2.7e-07,
                3.29021334,
                0.0
            ],
            [
                -0.0,
                0.0,
                3.2709427
            ]
        ],
        "epsilon_electronic_avg": 3.2837896533333333,
        "epsilon_electronic_eig": [
            3.2902127879473726,
            3.2902134720526277,
            3.2709427
        ]
    },
    "phonon": {
        "lowest_freq": -0.11244491264135235,
        "frequency": [
            -0.11244491264135235,
            -0.020591468103888455,
            -0.020591465908123368,
            1.5888467542477924,
            1.604112862293447,
            1.799620645496259,
            1.7996207337704642,
            2.154335512831801,
            2.1543355752269435,
            2.8557863128339007,
            2.8557864497629835,
            3.122937692432793,
            3.1229378254742612,
            3.22782785696857,
            3.227828019759243,
            3.538081494490151,
            4.094880781758438,
            4.0948808802375485,
            4.134295506950401,
            4.265927408405713,
            4.458896089864852,
            4.458896114530162,
            4.526276250973927,
            4.714598071141733,
            4.714598335520715,
            5.15595268410617,
            5.155952873712352,
            5.525076066665172,
            5.574550636287614,
            5.663696375871762,
            5.663696419023816,
            6.330248992785332,
            6.379425500776323,
            6.379425558242343,
            6.442087845069164,
            6.636095731857281,
            7.2865654739303345,
            7.286565490700933,
            7.758599236021549,
            7.758599236021549,
            8.07572427727839,
            8.075724564782165,
            8.801639062807213,
            8.897705431573684,
            8.89770550024311,
            9.528245701505494,
            10.318974544856284,
            10.674733442104953,
            11.763827611159288,
            11.763827787751563,
            12.316493424635446,
            12.316493752050237,
            12.602251341017347,
            12.602251670704643,
            13.20744304055627,
            13.321718700999677,
            13.321719223860411,
            13.321759410691508,
            13.892744878630102,
            14.051217255682593,
            14.570208906357577,
            14.576520755304717,
            16.032346563933253,
            16.032347021258932,
            16.142152183332257,
            16.142152637547017,
            22.096745253525366,
            22.096745530036824,
            22.34798828028616,
            22.34798844432786,
            22.768696600696995,
            23.399239959892213,
            23.399240221011944,
            23.61502797254386,
            23.8758223282068,
            24.077444256880327,
            24.07744440913909,
            25.171356894001715,
            25.940256134551444,
            25.940256370092804,
            25.982035556758046,
            26.100497034622933,
            26.100497221899158,
            26.625895189588697
        ]
    },
    "born_effective_charge": {
        "avg_abs_trace": 2.4180792857142857,
        "tensors": [
            [
                [
                    2.96824,
                    0.00016,
                    0.00044
                ],
                [
                    0.0,
                    2.96835,
                    -0.0
                ],
                [
                    0.0,
                    0.0,
                    2.38715
                ]
            ],
            [
                [
                    2.96824,
                    0.00016,
                    -0.00044
                ],
                [
                    0.0,
                    2.96835,
                    -0.0
                ],
                [
                    0.0,
                    0.0,
                    2.38715
                ]
            ],
            [
                [
                    3.93779,
                    -0.00027,
                    0.00056
                ],
                [
                    -0.0,
                    3.93776,
                    -0.0
                ],
                [
                    0.0,
                    0.0,
                    4.7743
                ]
            ],
            [
                [
                    3.93779,
                    -0.00027,
                    -0.00056
                ],
                [
                    -0.0,
                    3.93776,
                    -0.0
                ],
                [
                    0.0,
                    0.0,
                    4.7743
                ]
            ],
            [
                [
                    3.02015,
                    -0.04425,
                    -0.0
                ],
                [
                    -0.33005,
                    3.75012,
                    -0.0
                ],
                [
                    3e-05,
                    -1e-05,
                    3.16589
                ]
            ],
            [
                [
                    3.72849,
                    -0.07999,
                    -0.0
                ],
                [
                    -0.366,
                    3.03997,
                    -0.0
                ],
                [
                    -3e-05,
                    -2e-05,
                    3.16589
                ]
            ],
            [
                [
                    3.40625,
                    0.55251,
                    -0.0
                ],
                [
                    0.26717,
                    3.36395,
                    -0.0
                ],
                [
                    -0.0,
                    3e-05,
                    3.16589
                ]
            ],
            [
                [
                    3.72901,
                    0.08064,
                    -0.0
                ],
                [
                    0.366,
                    3.03997,
                    -0.0
                ],
                [
                    3e-05,
                    -2e-05,
                    3.16589
                ]
            ],
            [
                [
                    3.01864,
                    0.04446,
                    -0.0
                ],
                [
                    0.33005,
                    3.75012,
                    -0.0
                ],
                [
                    -3e-05,
                    -1e-05,
                    3.16589
                ]
            ],
            [
                [
                    3.40622,
                    -0.55377,
                    -0.0
                ],
                [
                    -0.26717,
                    3.36395,
                    -0.0
                ],
                [
                    0.0,
                    3e-05,
                    3.16589
                ]
            ],
            [
                [
                    -2.22631,
                    0.87686,
                    -0.0
                ],
                [
                    0.87322,
                    -2.14974,
                    -0.0
                ],
                [
                    -2e-05,
                    2e-05,
                    -1.02983
                ]
            ],
            [
                [
                    -2.9271,
                    -0.46872,
                    -0.0
                ],
                [
                    -0.47251,
                    -1.44938,
                    -0.0
                ],
                [
                    3e-05,
                    1e-05,
                    -1.02983
                ]
            ],
            [
                [
                    -1.41172,
                    -0.40231,
                    -0.0
                ],
                [
                    -0.40657,
                    -2.96507,
                    -0.0
                ],
                [
                    -1e-05,
                    -3e-05,
                    -1.02983
                ]
            ],
            [
                [
                    -2.92686,
                    0.46869,
                    -0.0
                ],
                [
                    0.47251,
                    -1.44938,
                    -0.0
                ],
                [
                    -3e-05,
                    1e-05,
                    -1.02983
                ]
            ],
            [
                [
                    -2.22592,
                    -0.87723,
                    -0.0
                ],
                [
                    -0.87322,
                    -2.14974,
                    -0.0
                ],
                [
                    2e-05,
                    2e-05,
                    -1.02983
                ]
            ],
            [
                [
                    -1.41105,
                    0.4022,
                    -0.0
                ],
                [
                    0.40658,
                    -2.96507,
                    -0.0
                ],
                [
                    1e-05,
                    -3e-05,
                    -1.02983
                ]
            ],
            [
                [
                    -1.59181,
                    -0.16646,
                    -0.12679
                ],
                [
                    -0.13549,
                    -1.90686,
                    0.77001
                ],
                [
                    -0.17101,
                    0.6546,
                    -2.26161
                ]
            ],
            [
                [
                    -1.69698,
                    0.19673,
                    -0.72968
                ],
                [
                    0.22732,
                    -1.8013,
                    0.27544
                ],
                [
                    -0.65232,
                    0.17916,
                    -2.26159
                ]
            ],
            [
                [
                    -1.95898,
                    -0.07623,
                    0.60351
                ],
                [
                    -0.04559,
                    -1.53982,
                    0.49466
                ],
                [
                    0.48132,
                    0.47534,
                    -2.26159
                ]
            ],
            [
                [
                    -1.95898,
                    -0.07623,
                    -0.60351
                ],
                [
                    -0.04559,
                    -1.53982,
                    -0.49466
                ],
                [
                    -0.48139,
                    -0.4754,
                    -2.26161
                ]
            ],
            [
                [
                    -1.69698,
                    0.19673,
                    0.72968
                ],
                [
                    0.22732,
                    -1.8013,
                    -0.27544
                ],
                [
                    0.6524,
                    -0.1792,
                    -2.26161
                ]
            ],
            [
                [
                    -1.69749,
                    -0.19648,
                    0.73026
                ],
                [
                    -0.22732,
                    -1.8013,
                    0.27544
                ],
                [
                    0.65232,
                    0.17916,
                    -2.26159
                ]
            ],
            [
                [
                    -1.59168,
                    0.16626,
                    -0.12639
                ],
                [
                    0.13549,
                    -1.90686,
                    -0.77001
                ],
                [
                    -0.171,
                    -0.65451,
                    -2.26159
                ]
            ],
            [
                [
                    -1.95899,
                    0.07674,
                    -0.60439
                ],
                [
                    0.0456,
                    -1.53982,
                    0.49466
                ],
                [
                    -0.48132,
                    0.47534,
                    -2.26159
                ]
            ],
            [
                [
                    -1.59168,
                    0.16626,
                    0.12639
                ],
                [
                    0.13549,
                    -1.90686,
                    0.77001
                ],
                [
                    0.17101,
                    0.6546,
                    -2.26161
                ]
            ],
            [
                [
                    -1.95899,
                    0.07674,
                    0.60439
                ],
                [
                    0.0456,
                    -1.53982,
                    -0.49466
                ],
                [
                    0.48139,
                    -0.4754,
                    -2.26161
                ]
            ],
            [
                [
                    -1.59181,
                    -0.16646,
                    0.12679
                ],
                [
                    -0.13549,
                    -1.90686,
                    -0.77001
                ],
                [
                    0.171,
                    -0.65451,
                    -2.26159
                ]
            ],
            [
                [
                    -1.69749,
                    -0.19648,
                    -0.73026
                ],
                [
                    -0.22732,
                    -1.8013,
                    -0.27544
                ],
                [
                    -0.6524,
                    -0.1792,
                    -2.26161
                ]
            ]
        ]
    },
    "band_gap": 2.7438,
    "is_direct": false,
    "formula": "BaSn(GeO3)3"
}