{
    "mp_id": "mp-504427",
    "nelements": 3,
    "nsites": 22,
    "elements": [
        "O",
        "Pb",
        "Ti"
    ],
    "structure": {
        "@module": "pymatgen.core.structure",
        "@class": "Structure",
        "charge": null,
        "lattice": {
            "matrix": [
                [
                    6.60263013,
                    0.0,
                    6.303e-05
                ],
                [
                    0.0,
                    3.87688525,
                    0.0
                ],
                [
                    -1.47445077,
                    0.0,
                    10.73079294
                ]
            ],
            "a": 6.602630130300848,
            "b": 3.87688525,
            "c": 10.831616785794605,
            "alpha": 90.0,
            "beta": 97.82311488904318,
            "gamma": 90.0,
            "volume": 274.68332804549374
        },
        "sites": [
            {
                "species": [
                    {
                        "element": "Ti",
                        "occu": 1
                    }
                ],
                "abc": [
                    0.54760488,
                    0.75,
                    0.89888256
                ],
                "xyz": [
                    2.290274397291463,
                    2.9076639374999997,
                    9.645757144272714
                ],
                "label": "Ti",
                "properties": {}
            },
            {
                "species": [
                    {
                        "element": "Ti",
                        "occu": 1
                    }
                ],
                "abc": [
                    0.45239512,
                    0.25,
                    0.10111744
                ],
                "xyz": [
                    2.8379049627085364,
                    0.9692213125,
                    1.0850988257272873
                ],
                "label": "Ti",
                "properties": {}
            },
            {
                "species": [
                    {
                        "element": "Ti",
                        "occu": 1
                    }
                ],
                "abc": [
                    0.68816036,
                    0.75,
                    0.56171381
                ],
                "xyz": [
                    3.715448967533513,
                    2.9076639374999997,
                    6.027677961395992
                ],
                "label": "Ti",
                "properties": {}
            },
            {
                "species": [
                    {
                        "element": "Ti",
                        "occu": 1
                    }
                ],
                "abc": [
                    0.31183964,
                    0.25,
                    0.43828619
                ],
                "xyz": [
                    1.4127303924664867,
                    0.9692213125,
                    4.7031780086040085
                ],
                "label": "Ti",
                "properties": {}
            },
            {
                "species": [
                    {
                        "element": "Ti",
                        "occu": 1
                    }
                ],
                "abc": [
                    0.25244427,
                    0.75,
                    0.65635015
                ],
                "xyz": [
                    0.6990401591907396,
                    2.9076639374999997,
                    7.043173467350279
                ],
                "label": "Ti",
                "properties": {}
            },
            {
                "species": [
                    {
                        "element": "Ti",
                        "occu": 1
                    }
                ],
                "abc": [
                    0.74755573,
                    0.25,
                    0.34364985
                ],
                "xyz": [
                    4.42913920080926,
                    0.9692213125,
                    3.6876825026497206
                ],
                "label": "Ti",
                "properties": {}
            },
            {
                "species": [
                    {
                        "element": "Pb",
                        "occu": 1
                    }
                ],
                "abc": [
                    0.00365719,
                    0.75,
                    0.14683002
                ],
                "xyz": [
                    -0.1923465631629807,
                    2.9076639374999997,
                    1.5756027725087445
                ],
                "label": "Pb",
                "properties": {}
            },
            {
                "species": [
                    {
                        "element": "Pb",
                        "occu": 1
                    }
                ],
                "abc": [
                    0.99634281,
                    0.25,
                    0.85316998
                ],
                "xyz": [
                    5.320525923162981,
                    0.9692213125,
                    9.155253197491255
                ],
                "label": "Pb",
                "properties": {}
            },
            {
                "species": [
                    {
                        "element": "O",
                        "occu": 1
                    }
                ],
                "abc": [
                    0.47380712,
                    0.75,
                    0.07427339
                ],
                "xyz": [
                    3.018860709244515,
                    2.9076639374999997,
                    0.7970422331046402
                ],
                "label": "O",
                "properties": {}
            },
            {
                "species": [
                    {
                        "element": "O",
                        "occu": 1
                    }
                ],
                "abc": [
                    0.52619288,
                    0.25,
                    0.92572661
                ],
                "xyz": [
                    2.109318650755484,
                    0.9692213125,
                    9.933813736895361
                ],
                "label": "O",
                "properties": {}
            },
            {
                "species": [
                    {
                        "element": "O",
                        "occu": 1
                    }
                ],
                "abc": [
                    0.7460013,
                    0.75,
                    0.3825102
                ],
                "xyz": [
                    4.3615782014763145,
                    2.9076639374999997,
                    4.104684774099928
                ],
                "label": "O",
                "properties": {}
            },
            {
                "species": [
                    {
                        "element": "O",
                        "occu": 1
                    }
                ],
                "abc": [
                    0.2539987,
                    0.25,
                    0.6174898
                ],
                "xyz": [
                    0.7666011585236849,
                    0.9692213125,
                    6.626171195900072
                ],
                "label": "O",
                "properties": {}
            },
            {
                "species": [
                    {
                        "element": "O",
                        "occu": 1
                    }
                ],
                "abc": [
                    0.3595725,
                    0.75,
                    0.48113461
                ],
                "xyz": [
                    1.664714926231275,
                    2.9076639374999997,
                    5.162978540032329
                ],
                "label": "O",
                "properties": {}
            },
            {
                "species": [
                    {
                        "element": "O",
                        "occu": 1
                    }
                ],
                "abc": [
                    0.6404275,
                    0.25,
                    0.51886539
                ],
                "xyz": [
                    3.463464433768725,
                    0.9692213125,
                    5.567877429967671
                ],
                "label": "O",
                "properties": {}
            },
            {
                "species": [
                    {
                        "element": "O",
                        "occu": 1
                    }
                ],
                "abc": [
                    0.83639674,
                    0.75,
                    0.94270695
                ],
                "xyz": [
                    4.132443327845924,
                    2.9076639374999997,
                    10.116045801635456
                ],
                "label": "O",
                "properties": {}
            },
            {
                "species": [
                    {
                        "element": "O",
                        "occu": 1
                    }
                ],
                "abc": [
                    0.16360326,
                    0.25,
                    0.05729305
                ],
                "xyz": [
                    0.9957360321540751,
                    0.9692213125,
                    0.6148101683645448
                ],
                "label": "O",
                "properties": {}
            },
            {
                "species": [
                    {
                        "element": "O",
                        "occu": 1
                    }
                ],
                "abc": [
                    0.9538369,
                    0.75,
                    0.63211307
                ],
                "xyz": [
                    5.365812652257232,
                    2.9076639374999997,
                    6.783134589177534
                ],
                "label": "O",
                "properties": {}
            },
            {
                "species": [
                    {
                        "element": "O",
                        "occu": 1
                    }
                ],
                "abc": [
                    0.0461631,
                    0.25,
                    0.36788693
                ],
                "xyz": [
                    -0.23763329225723318,
                    0.9692213125,
                    3.9477213808224674
                ],
                "label": "O",
                "properties": {}
            },
            {
                "species": [
                    {
                        "element": "O",
                        "occu": 1
                    }
                ],
                "abc": [
                    0.56172108,
                    0.75,
                    0.71425584
                ],
                "xyz": [
                    2.6557014541991437,
                    2.9076639374999997,
                    7.664566930505442
                ],
                "label": "O",
                "properties": {}
            },
            {
                "species": [
                    {
                        "element": "O",
                        "occu": 1
                    }
                ],
                "abc": [
                    0.43827892,
                    0.25,
                    0.28574416
                ],
                "xyz": [
                    2.472477905800856,
                    0.9692213125,
                    3.0662890394945586
                ],
                "label": "O",
                "properties": {}
            },
            {
                "species": [
                    {
                        "element": "O",
                        "occu": 1
                    }
                ],
                "abc": [
                    0.24652004,
                    0.75,
                    0.82855536
                ],
                "xyz": [
                    0.4060165552131778,
                    2.9076639374999997,
                    8.89107154564528
                ],
                "label": "O",
                "properties": {}
            },
            {
                "species": [
                    {
                        "element": "O",
                        "occu": 1
                    }
                ],
                "abc": [
                    0.75347996,
                    0.25,
                    0.17144464
                ],
                "xyz": [
                    4.722162804786821,
                    0.9692213125,
                    1.8397844243547208
                ],
                "label": "O",
                "properties": {}
            }
        ]
    },
    "spacegroup": {
        "source": "spglib",
        "symbol": "P2_1/m",
        "number": 11,
        "point_group": "2/m",
        "crystal_system": "monoclinic",
        "hall": "-P 2yb"
    },
    "dielectric": {
        "epsilon_ionic": [
            [
                26.77680513,
                -4e-08,
                -2.41584293
            ],
            [
                -4e-08,
                34.62016282,
                5e-08
            ],
            [
                -2.41584293,
                5e-08,
                19.41949542
            ]
        ],
        "epsilon_ionic_avg": 26.93882112333333,
        "epsilon_ionic_eig": [
            18.697150547137475,
            27.49915000286251,
            34.620162820000004
        ],
        "epsilon_electronic": [
            [
                6.83149951,
                0.0,
                0.03038629
            ],
            [
                0.0,
                6.41108111,
                0.0
            ],
            [
                0.03038936,
                0.0,
                6.21850403
            ]
        ],
        "epsilon_electronic_avg": 6.487028216666666,
        "epsilon_electronic_eig": [
            6.833002231900599,
            6.217001308099402,
            6.41108111
        ]
    },
    "phonon": {
        "lowest_freq": -0.06524474092157555,
        "frequency": [
            -0.06524474092157555,
            -0.05778320805227483,
            -0.05233918492366756,
            1.6303150070425019,
            1.6562006908268532,
            1.6807938076950217,
            2.2131456014838427,
            2.4772920290761524,
            2.978343420732334,
            3.2080739719927767,
            3.865623360277163,
            4.295761103606641,
            4.381917503697755,
            5.496835362411402,
            5.803006357144497,
            5.818393214936236,
            6.0003634772994,
            6.04365551163288,
            6.263822114619506,
            6.468976760251297,
            6.548068364021061,
            6.714465153904404,
            7.277543746678434,
            7.393498456590449,
            7.494923295939694,
            7.581440056916778,
            8.223804465630717,
            8.49937207990217,
            8.567707538599638,
            8.655433822163804,
            8.99134578482223,
            8.992637040664311,
            9.456551376392014,
            9.497622407095005,
            9.569120286631076,
            10.036284381020888,
            10.122604379607537,
            10.813394444050349,
            11.074382190660344,
            11.38517531209659,
            11.5599949150241,
            11.794328499794394,
            12.721503228851969,
            13.39732322654187,
            13.584441042124347,
            13.601556442626757,
            13.885977727823757,
            13.918089264526456,
            14.16446267854253,
            14.2909937986394,
            14.529320279196813,
            14.678829535535904,
            14.820231986806233,
            15.109234738795505,
            15.39741386861711,
            17.693016319185944,
            17.697810841859074,
            18.07626704412765,
            18.982849205877027,
            19.2042024517154,
            19.209824528782278,
            19.627745140556506,
            20.301825758198632,
            22.518691770844224,
            24.455200052622548,
            24.592838407146086
        ]
    },
    "born_effective_charge": {
        "avg_abs_trace": 3.835975454545455,
        "tensors": [
            [
                [
                    6.22075,
                    0.0,
                    0.2389
                ],
                [
                    -0.00121,
                    6.24536,
                    0.00076
                ],
                [
                    0.98919,
                    0.0,
                    5.96845
                ]
            ],
            [
                [
                    6.22072,
                    0.0,
                    0.23896
                ],
                [
                    0.00121,
                    6.24536,
                    -0.00076
                ],
                [
                    0.98959,
                    0.0,
                    5.96843
                ]
            ],
            [
                [
                    6.48296,
                    0.0,
                    -0.26405
                ],
                [
                    -0.00059,
                    5.05505,
                    -0.00043
                ],
                [
                    -0.03635,
                    0.0,
                    5.64271
                ]
            ],
            [
                [
                    6.48292,
                    0.0,
                    -0.26403
                ],
                [
                    0.00059,
                    5.05505,
                    0.00043
                ],
                [
                    -0.03629,
                    0.0,
                    5.64244
                ]
            ],
            [
                [
                    6.18923,
                    0.0,
                    0.26606
                ],
                [
                    0.00044,
                    5.91047,
                    -0.00182
                ],
                [
                    0.06577,
                    0.0,
                    5.10906
                ]
            ],
            [
                [
                    6.18923,
                    0.0,
                    0.26597
                ],
                [
                    -0.00044,
                    5.91047,
                    0.00182
                ],
                [
                    0.06575,
                    0.0,
                    5.10904
                ]
            ],
            [
                [
                    3.18276,
                    0.0,
                    -0.17396
                ],
                [
                    3e-05,
                    3.95141,
                    0.00017
                ],
                [
                    -0.50566,
                    0.0,
                    3.3356
                ]
            ],
            [
                [
                    3.18273,
                    0.0,
                    -0.17397
                ],
                [
                    -3e-05,
                    3.95141,
                    -0.00017
                ],
                [
                    -0.50552,
                    0.0,
                    3.33558
                ]
            ],
            [
                [
                    -1.50104,
                    0.0,
                    0.7318
                ],
                [
                    -0.00131,
                    -5.28981,
                    0.00207
                ],
                [
                    0.50865,
                    0.0,
                    -2.50817
                ]
            ],
            [
                [
                    -1.50104,
                    0.0,
                    0.73192
                ],
                [
                    0.00131,
                    -5.28981,
                    -0.00207
                ],
                [
                    0.50872,
                    0.0,
                    -2.50841
                ]
            ],
            [
                [
                    -1.38588,
                    0.0,
                    0.56186
                ],
                [
                    0.00017,
                    -5.03078,
                    -0.00273
                ],
                [
                    0.55121,
                    0.0,
                    -2.66242
                ]
            ],
            [
                [
                    -1.38589,
                    0.0,
                    0.56181
                ],
                [
                    -0.00017,
                    -5.03078,
                    0.00273
                ],
                [
                    0.55112,
                    0.0,
                    -2.66238
                ]
            ],
            [
                [
                    -2.20289,
                    0.0,
                    0.03539
                ],
                [
                    -0.00103,
                    -4.30156,
                    -0.00151
                ],
                [
                    0.07688,
                    0.0,
                    -2.24817
                ]
            ],
            [
                [
                    -2.20295,
                    0.0,
                    0.03539
                ],
                [
                    0.00103,
                    -4.30156,
                    0.00151
                ],
                [
                    0.07706,
                    0.0,
                    -2.24828
                ]
            ],
            [
                [
                    -4.29437,
                    0.0,
                    -0.56255
                ],
                [
                    0.00079,
                    -2.37537,
                    0.0002
                ],
                [
                    -0.67938,
                    0.0,
                    -2.52969
                ]
            ],
            [
                [
                    -4.2944,
                    0.0,
                    -0.56254
                ],
                [
                    -0.00079,
                    -2.37537,
                    -0.0002
                ],
                [
                    -0.67933,
                    0.0,
                    -2.52961
                ]
            ],
            [
                [
                    -5.84204,
                    0.0,
                    -1.51843
                ],
                [
                    -0.00062,
                    -1.21137,
                    -0.0003
                ],
                [
                    -1.50781,
                    0.0,
                    -1.8837
                ]
            ],
            [
                [
                    -5.84204,
                    0.0,
                    -1.51846
                ],
                [
                    0.00062,
                    -1.21137,
                    0.0003
                ],
                [
                    -1.50784,
                    0.0,
                    -1.88358
                ]
            ],
            [
                [
                    -3.5599,
                    0.0,
                    1.08841
                ],
                [
                    0.0003,
                    -1.03401,
                    2e-05
                ],
                [
                    0.78977,
                    0.0,
                    -4.52524
                ]
            ],
            [
                [
                    -3.55986,
                    0.0,
                    1.08842
                ],
                [
                    -0.0003,
                    -1.03401,
                    -2e-05
                ],
                [
                    0.78973,
                    0.0,
                    -4.52499
                ]
            ],
            [
                [
                    -3.28957,
                    0.0,
                    -0.40347
                ],
                [
                    -0.00038,
                    -1.91939,
                    0.00042
                ],
                [
                    -0.2526,
                    0.0,
                    -3.69833
                ]
            ],
            [
                [
                    -3.28943,
                    0.0,
                    -0.40342
                ],
                [
                    0.00038,
                    -1.91939,
                    -0.00042
                ],
                [
                    -0.25267,
                    0.0,
                    -3.69834
                ]
            ]
        ]
    },
    "band_gap": 2.0021,
    "is_direct": false,
    "formula": "Ti3PbO7"
}