{
    "mp_id": "mp-558023",
    "nelements": 3,
    "nsites": 34,
    "elements": [
        "O",
        "Rb",
        "Sb"
    ],
    "structure": {
        "@module": "pymatgen.core.structure",
        "@class": "Structure",
        "charge": null,
        "lattice": {
            "matrix": [
                [
                    9.83162047,
                    -3.81500891,
                    0.00062159
                ],
                [
                    9.83162047,
                    3.81500891,
                    0.00062159
                ],
                [
                    -0.67562328,
                    0.0,
                    7.22389862
                ]
            ],
            "a": 10.545854846141044,
            "b": 10.545854846141044,
            "c": 7.255424046085512,
            "alpha": 94.9769165072627,
            "beta": 94.9769165072627,
            "gamma": 42.41595215417268,
            "volume": 541.9071333635928
        },
        "sites": [
            {
                "species": [
                    {
                        "element": "Rb",
                        "occu": 1
                    }
                ],
                "abc": [
                    0.4901813,
                    0.4901813,
                    0.74346093
                ],
                "xyz": [
                    9.136253494103972,
                    0.0,
                    5.371295769839451
                ],
                "label": "Rb",
                "properties": {}
            },
            {
                "species": [
                    {
                        "element": "Rb",
                        "occu": 1
                    }
                ],
                "abc": [
                    0.73679827,
                    0.73679827,
                    0.00815189
                ],
                "xyz": [
                    14.482334300525176,
                    0.0,
                    0.059804399794690405
                ],
                "label": "Rb",
                "properties": {}
            },
            {
                "species": [
                    {
                        "element": "Rb",
                        "occu": 1
                    }
                ],
                "abc": [
                    0.5098187,
                    0.5098187,
                    0.25653907
                ],
                "xyz": [
                    9.851364165896028,
                    0.0,
                    1.8538460301605493
                ],
                "label": "Rb",
                "properties": {}
            },
            {
                "species": [
                    {
                        "element": "Rb",
                        "occu": 1
                    }
                ],
                "abc": [
                    0.26320173,
                    0.26320173,
                    0.99184811
                ],
                "xyz": [
                    4.505283359474826,
                    0.0,
                    7.165337400205309
                ],
                "label": "Rb",
                "properties": {}
            },
            {
                "species": [
                    {
                        "element": "Sb",
                        "occu": 1
                    }
                ],
                "abc": [
                    0.07162443,
                    0.07162443,
                    0.09837836
                ],
                "xyz": [
                    1.3419017140159435,
                    0.0,
                    0.7107643411007506
                ],
                "label": "Sb",
                "properties": {}
            },
            {
                "species": [
                    {
                        "element": "Sb",
                        "occu": 1
                    }
                ],
                "abc": [
                    0.08271662,
                    0.56843594,
                    0.56343541
                ],
                "xyz": [
                    6.0212147582165585,
                    1.853023533559141,
                    4.070605030677904
                ],
                "label": "Sb",
                "properties": {}
            },
            {
                "species": [
                    {
                        "element": "Sb",
                        "occu": 1
                    }
                ],
                "abc": [
                    0.43156406,
                    0.91728338,
                    0.43656459
                ],
                "xyz": [
                    12.966402901783443,
                    1.853023533559141,
                    3.154536769322095
                ],
                "label": "Sb",
                "properties": {}
            },
            {
                "species": [
                    {
                        "element": "Sb",
                        "occu": 1
                    }
                ],
                "abc": [
                    0.56843594,
                    0.08271662,
                    0.56343541
                ],
                "xyz": [
                    6.0212147582165585,
                    -1.853023533559141,
                    4.070605030677904
                ],
                "label": "Sb",
                "properties": {}
            },
            {
                "species": [
                    {
                        "element": "Sb",
                        "occu": 1
                    }
                ],
                "abc": [
                    0.0758413,
                    0.0758413,
                    0.61706279
                ],
                "xyz": [
                    1.0743837689570708,
                    0.0,
                    4.457693321521684
                ],
                "label": "Sb",
                "properties": {}
            },
            {
                "species": [
                    {
                        "element": "Sb",
                        "occu": 1
                    }
                ],
                "abc": [
                    0.92837557,
                    0.92837557,
                    0.90162164
                ],
                "xyz": [
                    17.64571594598406,
                    0.0,
                    6.514377458899249
                ],
                "label": "Sb",
                "properties": {}
            },
            {
                "species": [
                    {
                        "element": "Sb",
                        "occu": 1
                    }
                ],
                "abc": [
                    0.9241587,
                    0.9241587,
                    0.38293721
                ],
                "xyz": [
                    17.913233891042932,
                    0.0,
                    2.767448478478316
                ],
                "label": "Sb",
                "properties": {}
            },
            {
                "species": [
                    {
                        "element": "Sb",
                        "occu": 1
                    }
                ],
                "abc": [
                    0.91728338,
                    0.43156406,
                    0.43656459
                ],
                "xyz": [
                    12.966402901783443,
                    -1.853023533559141,
                    3.154536769322095
                ],
                "label": "Sb",
                "properties": {}
            },
            {
                "species": [
                    {
                        "element": "O",
                        "occu": 1
                    }
                ],
                "abc": [
                    0.5246217,
                    0.9485185,
                    0.66796705
                ],
                "xyz": [
                    14.03206125624697,
                    1.6171700689204882,
                    4.826241939917389
                ],
                "label": "O",
                "properties": {}
            },
            {
                "species": [
                    {
                        "element": "O",
                        "occu": 1
                    }
                ],
                "abc": [
                    0.88185806,
                    0.88185806,
                    0.13146309
                ],
                "xyz": [
                    17.251367984596243,
                    0.0,
                    0.9507723427349666
                ],
                "label": "O",
                "properties": {}
            },
            {
                "species": [
                    {
                        "element": "O",
                        "occu": 1
                    }
                ],
                "abc": [
                    0.9485185,
                    0.5246217,
                    0.66796705
                ],
                "xyz": [
                    14.03206125624697,
                    -1.6171700689204882,
                    4.826241939917389
                ],
                "label": "O",
                "properties": {}
            },
            {
                "species": [
                    {
                        "element": "O",
                        "occu": 1
                    }
                ],
                "abc": [
                    0.34367918,
                    0.83320745,
                    0.57032649
                ],
                "xyz": [
                    11.185376828532629,
                    1.8675547117468856,
                    4.120712285020786
                ],
                "label": "O",
                "properties": {}
            },
            {
                "species": [
                    {
                        "element": "O",
                        "occu": 1
                    }
                ],
                "abc": [
                    0.166993,
                    0.166993,
                    0.51048908
                ],
                "xyz": [
                    2.9387252876596377,
                    0.0,
                    3.68792896289481
                ],
                "label": "O",
                "properties": {}
            },
            {
                "species": [
                    {
                        "element": "O",
                        "occu": 1
                    }
                ],
                "abc": [
                    0.65978895,
                    0.65978895,
                    0.35579166
                ],
                "xyz": [
                    12.73320796507377,
                    0.0,
                    2.57102311810837
                ],
                "label": "O",
                "properties": {}
            },
            {
                "species": [
                    {
                        "element": "O",
                        "occu": 1
                    }
                ],
                "abc": [
                    0.06996112,
                    0.67236892,
                    0.81123001
                ],
                "xyz": [
                    6.750221336569287,
                    2.2981911244534983,
                    5.86070477467115
                ],
                "label": "O",
                "properties": {}
            },
            {
                "species": [
                    {
                        "element": "O",
                        "occu": 1
                    }
                ],
                "abc": [
                    0.82815225,
                    0.17184775,
                    0.0
                ],
                "xyz": [
                    9.83162047,
                    -2.503807515173095,
                    0.00062159
                ],
                "label": "O",
                "properties": {}
            },
            {
                "species": [
                    {
                        "element": "O",
                        "occu": 1
                    }
                ],
                "abc": [
                    0.83320745,
                    0.34367918,
                    0.57032649
                ],
                "xyz": [
                    11.185376828532629,
                    -1.8675547117468856,
                    4.120712285020786
                ],
                "label": "O",
                "properties": {}
            },
            {
                "species": [
                    {
                        "element": "O",
                        "occu": 1
                    }
                ],
                "abc": [
                    0.93003888,
                    0.32763108,
                    0.18876999
                ],
                "xyz": [
                    12.237396323430715,
                    -2.2981911244534983,
                    1.36443702532885
                ],
                "label": "O",
                "properties": {}
            },
            {
                "species": [
                    {
                        "element": "O",
                        "occu": 1
                    }
                ],
                "abc": [
                    0.833007,
                    0.833007,
                    0.48951092
                ],
                "xyz": [
                    16.048892372340365,
                    0.0,
                    3.5372128371051907
                ],
                "label": "O",
                "properties": {}
            },
            {
                "species": [
                    {
                        "element": "O",
                        "occu": 1
                    }
                ],
                "abc": [
                    0.65632082,
                    0.16679255,
                    0.42967351
                ],
                "xyz": [
                    7.802240831467373,
                    -1.8675547117468856,
                    3.1044295149792145
                ],
                "label": "O",
                "properties": {}
            },
            {
                "species": [
                    {
                        "element": "O",
                        "occu": 1
                    }
                ],
                "abc": [
                    0.32763108,
                    0.93003888,
                    0.18876999
                ],
                "xyz": [
                    12.237396323430715,
                    2.2981911244534983,
                    1.36443702532885
                ],
                "label": "O",
                "properties": {}
            },
            {
                "species": [
                    {
                        "element": "O",
                        "occu": 1
                    }
                ],
                "abc": [
                    0.17184775,
                    0.82815225,
                    0.0
                ],
                "xyz": [
                    9.83162047,
                    2.503807515173095,
                    0.00062159
                ],
                "label": "O",
                "properties": {}
            },
            {
                "species": [
                    {
                        "element": "O",
                        "occu": 1
                    }
                ],
                "abc": [
                    0.0514815,
                    0.4753783,
                    0.33203295
                ],
                "xyz": [
                    4.955556403753031,
                    1.617170068920488,
                    2.398899860082611
                ],
                "label": "O",
                "properties": {}
            },
            {
                "species": [
                    {
                        "element": "O",
                        "occu": 1
                    }
                ],
                "abc": [
                    0.67236892,
                    0.06996112,
                    0.81123001
                ],
                "xyz": [
                    6.750221336569287,
                    -2.2981911244534983,
                    5.86070477467115
                ],
                "label": "O",
                "properties": {}
            },
            {
                "species": [
                    {
                        "element": "O",
                        "occu": 1
                    }
                ],
                "abc": [
                    0.34021105,
                    0.34021105,
                    0.64420834
                ],
                "xyz": [
                    6.254409694926232,
                    0.0,
                    4.65411868189163
                ],
                "label": "O",
                "properties": {}
            },
            {
                "species": [
                    {
                        "element": "O",
                        "occu": 1
                    }
                ],
                "abc": [
                    0.02364407,
                    0.02364407,
                    0.34571535
                ],
                "xyz": [
                    0.2313457064988778,
                    0.0,
                    2.497442033612759
                ],
                "label": "O",
                "properties": {}
            },
            {
                "species": [
                    {
                        "element": "O",
                        "occu": 1
                    }
                ],
                "abc": [
                    0.4753783,
                    0.0514815,
                    0.33203295
                ],
                "xyz": [
                    4.955556403753031,
                    -1.617170068920488,
                    2.398899860082611
                ],
                "label": "O",
                "properties": {}
            },
            {
                "species": [
                    {
                        "element": "O",
                        "occu": 1
                    }
                ],
                "abc": [
                    0.16679255,
                    0.65632082,
                    0.42967351
                ],
                "xyz": [
                    7.802240831467373,
                    1.8675547117468856,
                    3.1044295149792145
                ],
                "label": "O",
                "properties": {}
            },
            {
                "species": [
                    {
                        "element": "O",
                        "occu": 1
                    }
                ],
                "abc": [
                    0.97635593,
                    0.97635593,
                    0.65428465
                ],
                "xyz": [
                    18.756271953501123,
                    0.0,
                    4.72769976638724
                ],
                "label": "O",
                "properties": {}
            },
            {
                "species": [
                    {
                        "element": "O",
                        "occu": 1
                    }
                ],
                "abc": [
                    0.11814194,
                    0.11814194,
                    0.86853691
                ],
                "xyz": [
                    1.736249675403759,
                    0.0,
                    6.274369457265033
                ],
                "label": "O",
                "properties": {}
            }
        ]
    },
    "spacegroup": {
        "source": "spglib",
        "symbol": "C2/m",
        "number": 12,
        "point_group": "2/m",
        "crystal_system": "monoclinic",
        "hall": "-C 2y"
    },
    "dielectric": {
        "epsilon_ionic": [
            [
                6.44979102,
                0.0,
                -0.4808869
            ],
            [
                0.0,
                8.96341871,
                -1e-08
            ],
            [
                -0.4808869,
                -1e-08,
                7.04416306
            ]
        ],
        "epsilon_ionic_avg": 7.48579093,
        "epsilon_ionic_eig": [
            6.1816702727708694,
            7.3122838072291305,
            8.96341871
        ],
        "epsilon_electronic": [
            [
                3.5389802,
                0.0,
                0.1236099
            ],
            [
                0.0,
                3.35781244,
                0.0
            ],
            [
                0.1236097,
                0.0,
                3.3662295
            ]
        ],
        "epsilon_electronic_avg": 3.4210073800000003,
        "epsilon_electronic_eig": [
            3.6034030056374364,
            3.301806694362564,
            3.35781244
        ]
    },
    "phonon": {
        "lowest_freq": -0.07376476430085713,
        "frequency": [
            -0.07376476430085713,
            -0.03976426378120584,
            -0.021561480269613926,
            1.0247426106809163,
            1.0915835896293486,
            1.0932912781479782,
            1.5001526696388237,
            1.6515385903583613,
            1.7041497595395545,
            1.869077627366227,
            1.904119613254598,
            1.9958841414539932,
            2.0933928479492803,
            2.2387095560625156,
            2.291001991823535,
            2.492041675907173,
            2.684448398349382,
            2.6994512961333186,
            3.2810006151126028,
            3.332989625245333,
            3.736763165817215,
            4.013153192765332,
            4.070564510325938,
            4.428241235338702,
            4.490270537100799,
            4.908892717250164,
            5.210037240885995,
            5.4207620876815,
            5.437566215703796,
            5.494245776351037,
            5.766403786463753,
            5.774105523969815,
            5.888061063421081,
            5.953979917831515,
            6.1920091192919715,
            6.264616309220133,
            6.277233096232556,
            6.559150616292015,
            6.563022077985269,
            6.703458305887977,
            6.859235364651638,
            7.1167640399780625,
            7.342409520884393,
            7.4289844402886125,
            7.767621244378438,
            7.879204323443265,
            7.981529247612128,
            8.283533379755202,
            8.40886612347481,
            8.58292481177128,
            8.651212110806673,
            8.761725633285488,
            9.727444306068401,
            10.127473233984269,
            10.22808064707703,
            10.279727413947473,
            10.301934455394312,
            10.48486848285899,
            11.473793121652298,
            11.91686844622767,
            12.171845490159647,
            12.620476764281484,
            12.698917867683054,
            13.04022239131393,
            13.852128306853254,
            14.512940576687964,
            14.61918635099996,
            14.770972787833811,
            15.091324773470596,
            15.153773809478428,
            15.291525089121812,
            15.65059912163702,
            15.909815048623242,
            16.039597652282826,
            16.113244447238277,
            16.241998199501044,
            16.308609993943314,
            16.503500047361136,
            16.864076773991528,
            17.049182317130263,
            17.14353172090054,
            17.267329753157686,
            17.400158335730108,
            17.538975734648602,
            17.546667736801666,
            18.238479400823636,
            18.46156470911546,
            18.54710400195059,
            18.60641393563295,
            18.99580216494157,
            19.903905817129736,
            20.13033895064381,
            20.440130155806205,
            20.50141264194939,
            21.323136005770102,
            21.324548102057246,
            21.593289324674693,
            21.94517923275306,
            23.438448444983234,
            23.93160591440063,
            23.97892423536243,
            24.48297081827699
        ]
    },
    "born_effective_charge": {
        "avg_abs_trace": 2.426362745098039,
        "tensors": [
            [
                [
                    1.25412,
                    0.0,
                    -0.00036
                ],
                [
                    0.0,
                    1.60263,
                    -0.0
                ],
                [
                    0.03138,
                    0.0,
                    1.07205
                ]
            ],
            [
                [
                    1.22862,
                    0.0,
                    -0.1194
                ],
                [
                    2e-05,
                    1.13591,
                    -5e-05
                ],
                [
                    -0.12924,
                    0.0,
                    1.61899
                ]
            ],
            [
                [
                    1.25409,
                    0.0,
                    -0.00021
                ],
                [
                    -0.0,
                    1.60263,
                    0.0
                ],
                [
                    0.03118,
                    0.0,
                    1.07209
                ]
            ],
            [
                [
                    1.22836,
                    0.0,
                    -0.11895
                ],
                [
                    -2e-05,
                    1.13591,
                    5e-05
                ],
                [
                    -0.12938,
                    0.0,
                    1.6191
                ]
            ],
            [
                [
                    4.62191,
                    0.0,
                    0.09975
                ],
                [
                    1e-05,
                    3.38204,
                    0.0
                ],
                [
                    0.40452,
                    0.0,
                    5.80284
                ]
            ],
            [
                [
                    4.89812,
                    0.65598,
                    0.63704
                ],
                [
                    0.88693,
                    5.17301,
                    -0.33409
                ],
                [
                    0.28925,
                    0.00763,
                    3.47431
                ]
            ],
            [
                [
                    4.89807,
                    -0.65598,
                    0.63715
                ],
                [
                    -0.88693,
                    5.17301,
                    0.33409
                ],
                [
                    0.28933,
                    -0.00787,
                    3.47409
                ]
            ],
            [
                [
                    4.89812,
                    -0.65598,
                    0.63704
                ],
                [
                    -0.88679,
                    5.17317,
                    0.33412
                ],
                [
                    0.28925,
                    -0.00763,
                    3.47431
                ]
            ],
            [
                [
                    4.7661,
                    0.0,
                    -0.23489
                ],
                [
                    -3e-05,
                    3.39714,
                    2e-05
                ],
                [
                    0.04422,
                    0.0,
                    4.89939
                ]
            ],
            [
                [
                    4.62186,
                    0.0,
                    0.09976
                ],
                [
                    -1e-05,
                    3.38204,
                    -0.0
                ],
                [
                    0.40411,
                    0.0,
                    5.80268
                ]
            ],
            [
                [
                    4.76603,
                    0.0,
                    -0.2348
                ],
                [
                    3e-05,
                    3.39714,
                    -2e-05
                ],
                [
                    0.04413,
                    0.0,
                    4.89926
                ]
            ],
            [
                [
                    4.89807,
                    0.65598,
                    0.63715
                ],
                [
                    0.88679,
                    5.17317,
                    -0.33412
                ],
                [
                    0.28933,
                    0.00787,
                    3.47409
                ]
            ],
            [
                [
                    -2.28167,
                    0.02947,
                    -0.34002
                ],
                [
                    0.13994,
                    -1.31381,
                    0.05481
                ],
                [
                    -0.26573,
                    0.04904,
                    -1.52178
                ]
            ],
            [
                [
                    -1.50089,
                    0.0,
                    0.40118
                ],
                [
                    -8e-05,
                    -0.87612,
                    -7e-05
                ],
                [
                    0.11189,
                    0.0,
                    -3.30186
                ]
            ],
            [
                [
                    -2.28167,
                    -0.02947,
                    -0.34002
                ],
                [
                    -0.13999,
                    -1.3139,
                    -0.05488
                ],
                [
                    -0.26573,
                    -0.04904,
                    -1.52178
                ]
            ],
            [
                [
                    -2.03981,
                    0.4171,
                    0.39696
                ],
                [
                    0.30919,
                    -1.90718,
                    -0.26384
                ],
                [
                    0.42491,
                    -0.25079,
                    -1.4116
                ]
            ],
            [
                [
                    -1.84241,
                    0.0,
                    0.25736
                ],
                [
                    0.00014,
                    -2.60611,
                    -1e-05
                ],
                [
                    0.23602,
                    0.0,
                    -1.27322
                ]
            ],
            [
                [
                    -1.4071,
                    0.0,
                    -0.14957
                ],
                [
                    8e-05,
                    -3.78968,
                    0.00011
                ],
                [
                    -0.04992,
                    0.0,
                    -1.07955
                ]
            ],
            [
                [
                    -1.78647,
                    -0.6256,
                    -0.63796
                ],
                [
                    -0.66556,
                    -1.87454,
                    -0.6147
                ],
                [
                    -0.66048,
                    -0.62714,
                    -2.17926
                ]
            ],
            [
                [
                    -1.87621,
                    0.00016,
                    -0.38846
                ],
                [
                    -0.0,
                    -1.48272,
                    -0.0
                ],
                [
                    -0.47409,
                    -6e-05,
                    -1.79648
                ]
            ],
            [
                [
                    -2.03981,
                    -0.4171,
                    0.39696
                ],
                [
                    -0.30931,
                    -1.90721,
                    0.2639
                ],
                [
                    0.42491,
                    0.25079,
                    -1.4116
                ]
            ],
            [
                [
                    -1.78655,
                    -0.62567,
                    -0.63778
                ],
                [
                    -0.66571,
                    -1.8744,
                    -0.61469
                ],
                [
                    -0.66031,
                    -0.6271,
                    -2.17958
                ]
            ],
            [
                [
                    -1.84257,
                    0.0,
                    0.25753
                ],
                [
                    -0.00014,
                    -2.60611,
                    1e-05
                ],
                [
                    0.236,
                    0.0,
                    -1.2734
                ]
            ],
            [
                [
                    -2.03979,
                    0.41715,
                    0.39684
                ],
                [
                    0.30931,
                    -1.90721,
                    -0.2639
                ],
                [
                    0.42494,
                    -0.251,
                    -1.4116
                ]
            ],
            [
                [
                    -1.78655,
                    0.62567,
                    -0.63778
                ],
                [
                    0.66556,
                    -1.87454,
                    0.6147
                ],
                [
                    -0.66031,
                    0.6271,
                    -2.17958
                ]
            ],
            [
                [
                    -1.87621,
                    -0.00016,
                    -0.38846
                ],
                [
                    0.0,
                    -1.48283,
                    -0.0
                ],
                [
                    -0.47409,
                    6e-05,
                    -1.79648
                ]
            ],
            [
                [
                    -2.28159,
                    -0.02946,
                    -0.34022
                ],
                [
                    -0.13994,
                    -1.31381,
                    -0.05481
                ],
                [
                    -0.26576,
                    -0.04892,
                    -1.52152
                ]
            ],
            [
                [
                    -1.78647,
                    0.6256,
                    -0.63796
                ],
                [
                    0.66571,
                    -1.8744,
                    0.61469
                ],
                [
                    -0.66048,
                    0.62714,
                    -2.17926
                ]
            ],
            [
                [
                    -1.40709,
                    0.0,
                    -0.14931
                ],
                [
                    -8e-05,
                    -3.78968,
                    -0.00011
                ],
                [
                    -0.04986,
                    0.0,
                    -1.07933
                ]
            ],
            [
                [
                    -2.82391,
                    0.0,
                    0.02175
                ],
                [
                    -3e-05,
                    -0.9182,
                    -1e-05
                ],
                [
                    0.24925,
                    0.0,
                    -2.66509
                ]
            ],
            [
                [
                    -2.28159,
                    0.02946,
                    -0.34022
                ],
                [
                    0.13999,
                    -1.3139,
                    0.05488
                ],
                [
                    -0.26576,
                    0.04892,
                    -1.52152
                ]
            ],
            [
                [
                    -2.03979,
                    -0.41715,
                    0.39684
                ],
                [
                    -0.30919,
                    -1.90718,
                    0.26384
                ],
                [
                    0.42494,
                    0.251,
                    -1.4116
                ]
            ],
            [
                [
                    -2.82407,
                    0.0,
                    0.02187
                ],
                [
                    3e-05,
                    -0.9182,
                    1e-05
                ],
                [
                    0.24954,
                    0.0,
                    -2.6653
                ]
            ],
            [
                [
                    -1.50125,
                    0.0,
                    0.40118
                ],
                [
                    8e-05,
                    -0.87612,
                    7e-05
                ],
                [
                    0.11206,
                    0.0,
                    -3.30182
                ]
            ]
        ]
    },
    "band_gap": 1.9969999999999999,
    "is_direct": false,
    "formula": "Rb2Sb4O11"
}