{
    "mp_id": "mp-557761",
    "nelements": 4,
    "nsites": 18,
    "elements": [
        "Ba",
        "K",
        "O",
        "Sb"
    ],
    "structure": {
        "@module": "pymatgen.core.structure",
        "@class": "Structure",
        "charge": null,
        "lattice": {
            "matrix": [
                [
                    -4.40251376,
                    4.40251376,
                    8.26062929
                ],
                [
                    4.40251376,
                    -4.40251376,
                    8.26062929
                ],
                [
                    4.40251376,
                    4.40251376,
                    -8.26062929
                ]
            ],
            "a": 10.344189242313028,
            "b": 10.344189242313028,
            "c": 10.344189242313028,
            "alpha": 129.6223769595507,
            "beta": 129.6223769595507,
            "gamma": 74.01118292248816,
            "volume": 640.4342774427515
        },
        "sites": [
            {
                "species": [
                    {
                        "element": "K",
                        "occu": 1
                    }
                ],
                "abc": [
                    0.5,
                    0.5,
                    0.0
                ],
                "xyz": [
                    0.0,
                    0.0,
                    8.26062929
                ],
                "label": "K",
                "properties": {}
            },
            {
                "species": [
                    {
                        "element": "K",
                        "occu": 1
                    }
                ],
                "abc": [
                    0.0,
                    0.0,
                    0.0
                ],
                "xyz": [
                    0.0,
                    0.0,
                    0.0
                ],
                "label": "K",
                "properties": {}
            },
            {
                "species": [
                    {
                        "element": "Ba",
                        "occu": 1
                    }
                ],
                "abc": [
                    0.81353306,
                    0.9944927,
                    0.5
                ],
                "xyz": [
                    2.997934185104646,
                    1.4045795748953536,
                    10.805115905130512
                ],
                "label": "Ba",
                "properties": {}
            },
            {
                "species": [
                    {
                        "element": "Ba",
                        "occu": 1
                    }
                ],
                "abc": [
                    0.4944927,
                    0.31353306,
                    0.5
                ],
                "xyz": [
                    1.4045795748953533,
                    2.997934185104646,
                    2.544486615130511
                ],
                "label": "Ba",
                "properties": {}
            },
            {
                "species": [
                    {
                        "element": "Ba",
                        "occu": 1
                    }
                ],
                "abc": [
                    0.9944927,
                    0.4944927,
                    0.18095964
                ],
                "xyz": [
                    -1.4045795748953536,
                    2.997934185104646,
                    10.805115905130512
                ],
                "label": "Ba",
                "properties": {}
            },
            {
                "species": [
                    {
                        "element": "Ba",
                        "occu": 1
                    }
                ],
                "abc": [
                    0.18646694,
                    0.0055073,
                    0.5
                ],
                "xyz": [
                    1.4045795748953536,
                    2.997934185104646,
                    -2.5444866151305106
                ],
                "label": "Ba",
                "properties": {}
            },
            {
                "species": [
                    {
                        "element": "Ba",
                        "occu": 1
                    }
                ],
                "abc": [
                    0.68646694,
                    0.18646694,
                    0.18095964
                ],
                "xyz": [
                    -1.4045795748953536,
                    2.997934185104646,
                    5.71614267486949
                ],
                "label": "Ba",
                "properties": {}
            },
            {
                "species": [
                    {
                        "element": "Ba",
                        "occu": 1
                    }
                ],
                "abc": [
                    0.0055073,
                    0.5055073,
                    0.81904036
                ],
                "xyz": [
                    5.807093334895353,
                    1.4045795748953536,
                    -2.544486615130512
                ],
                "label": "Ba",
                "properties": {}
            },
            {
                "species": [
                    {
                        "element": "Ba",
                        "occu": 1
                    }
                ],
                "abc": [
                    0.31353306,
                    0.81353306,
                    0.81904036
                ],
                "xyz": [
                    5.807093334895353,
                    1.4045795748953536,
                    2.54448661513051
                ],
                "label": "Ba",
                "properties": {}
            },
            {
                "species": [
                    {
                        "element": "Ba",
                        "occu": 1
                    }
                ],
                "abc": [
                    0.5055073,
                    0.68646694,
                    0.5
                ],
                "xyz": [
                    2.997934185104646,
                    1.4045795748953536,
                    5.71614267486949
                ],
                "label": "Ba",
                "properties": {}
            },
            {
                "species": [
                    {
                        "element": "Sb",
                        "occu": 1
                    }
                ],
                "abc": [
                    0.88409009,
                    0.61590991,
                    0.5
                ],
                "xyz": [
                    1.0205899473907225,
                    3.381923812609277,
                    8.26062929
                ],
                "label": "Sb",
                "properties": {}
            },
            {
                "species": [
                    {
                        "element": "Sb",
                        "occu": 1
                    }
                ],
                "abc": [
                    0.25,
                    0.25,
                    0.0
                ],
                "xyz": [
                    0.0,
                    0.0,
                    4.130314645
                ],
                "label": "Sb",
                "properties": {}
            },
            {
                "species": [
                    {
                        "element": "Sb",
                        "occu": 1
                    }
                ],
                "abc": [
                    0.38409009,
                    0.88409009,
                    0.26818018
                ],
                "xyz": [
                    3.381923812609277,
                    -1.0205899473907236,
                    8.260629290000002
                ],
                "label": "Sb",
                "properties": {}
            },
            {
                "species": [
                    {
                        "element": "Sb",
                        "occu": 1
                    }
                ],
                "abc": [
                    0.61590991,
                    0.11590991,
                    0.73181982
                ],
                "xyz": [
                    1.0205899473907238,
                    5.423103707390723,
                    0.0
                ],
                "label": "Sb",
                "properties": {}
            },
            {
                "species": [
                    {
                        "element": "Sb",
                        "occu": 1
                    }
                ],
                "abc": [
                    0.11590991,
                    0.38409009,
                    0.5
                ],
                "xyz": [
                    3.3819238126092763,
                    1.0205899473907234,
                    0.0
                ],
                "label": "Sb",
                "properties": {}
            },
            {
                "species": [
                    {
                        "element": "Sb",
                        "occu": 1
                    }
                ],
                "abc": [
                    0.75,
                    0.75,
                    0.0
                ],
                "xyz": [
                    0.0,
                    0.0,
                    12.390943935000001
                ],
                "label": "Sb",
                "properties": {}
            },
            {
                "species": [
                    {
                        "element": "O",
                        "occu": 1
                    }
                ],
                "abc": [
                    0.25,
                    0.75,
                    0.5
                ],
                "xyz": [
                    4.40251376,
                    0.0,
                    4.130314645
                ],
                "label": "O",
                "properties": {}
            },
            {
                "species": [
                    {
                        "element": "O",
                        "occu": 1
                    }
                ],
                "abc": [
                    0.75,
                    0.25,
                    0.5
                ],
                "xyz": [
                    0.0,
                    4.40251376,
                    4.130314645
                ],
                "label": "O",
                "properties": {}
            }
        ]
    },
    "spacegroup": {
        "source": "spglib",
        "symbol": "I4/mcm",
        "number": 140,
        "point_group": "4/mmm",
        "crystal_system": "tetragonal",
        "hall": "-I 4 2c"
    },
    "dielectric": {
        "epsilon_ionic": [
            [
                6.98508656,
                2e-08,
                -1e-08
            ],
            [
                2e-08,
                6.98503267,
                -0.0
            ],
            [
                -1e-08,
                -0.0,
                10.43423241
            ]
        ],
        "epsilon_ionic_avg": 8.134783879999999,
        "epsilon_ionic_eig": [
            6.9850865600074235,
            6.985032669992574,
            10.434232409999998
        ],
        "epsilon_electronic": [
            [
                8.35359581,
                0.0,
                0.0
            ],
            [
                0.0,
                8.35359581,
                0.0
            ],
            [
                0.0,
                0.0,
                8.08262218
            ]
        ],
        "epsilon_electronic_avg": 8.263271266666665,
        "epsilon_electronic_eig": [
            8.35359581,
            8.35359581,
            8.08262218
        ]
    },
    "phonon": {
        "lowest_freq": -0.05052065358136154,
        "frequency": [
            -0.05052065358136154,
            -0.006520874265218003,
            -0.006520874265218003,
            1.479289156417308,
            1.479289156417308,
            1.5100159610262465,
            1.5100159610262465,
            1.6107190505596052,
            1.6206284667913293,
            1.6271805739184182,
            1.668308692748736,
            1.7156065604581385,
            1.8298839625839547,
            1.8987766415602099,
            1.8987766415602099,
            1.9532055198458478,
            1.9762090078436902,
            2.113033145057279,
            2.113033145057279,
            2.3028038993221336,
            2.3292058013870878,
            2.4679992775712685,
            2.4679992775712685,
            2.4985007680030584,
            2.5262954284275008,
            2.5262954284275008,
            2.598610058885784,
            2.598610058885784,
            2.646898188655754,
            2.705591772245607,
            2.705591772245607,
            2.9128721623599,
            2.9128721623599,
            3.0103360856965504,
            3.0103360856965504,
            3.1347385060969715,
            3.157178838655128,
            3.2056366165695276,
            3.2638410403783014,
            3.554674295253972,
            3.895992574263065,
            3.960882114699614,
            3.960882114699614,
            4.034398075249792,
            4.13008915475404,
            4.13008915475404,
            4.878053098096473,
            4.916962619478708,
            8.294529383295004,
            8.294529383295004,
            8.41236969502729,
            8.41236969502729,
            8.714239919919898,
            8.92410253466596
        ]
    },
    "born_effective_charge": {
        "avg_abs_trace": 2.406885555555556,
        "tensors": [
            [
                [
                    1.07907,
                    -0.29421,
                    0.0
                ],
                [
                    0.29421,
                    1.07908,
                    0.0
                ],
                [
                    -0.0,
                    0.0,
                    1.15123
                ]
            ],
            [
                [
                    1.07907,
                    0.29421,
                    0.0
                ],
                [
                    -0.29421,
                    1.07908,
                    0.0
                ],
                [
                    -0.0,
                    0.0,
                    1.15123
                ]
            ],
            [
                [
                    2.34708,
                    -0.42062,
                    0.33979
                ],
                [
                    -0.42101,
                    2.34713,
                    -0.33942
                ],
                [
                    0.12338,
                    -0.12338,
                    2.60166
                ]
            ],
            [
                [
                    2.34714,
                    -0.42115,
                    -0.33932
                ],
                [
                    -0.42078,
                    2.34708,
                    0.33968
                ],
                [
                    -0.12338,
                    0.12338,
                    2.60166
                ]
            ],
            [
                [
                    2.34708,
                    0.42062,
                    0.33979
                ],
                [
                    0.42078,
                    2.34708,
                    0.33968
                ],
                [
                    0.12338,
                    0.12338,
                    2.60166
                ]
            ],
            [
                [
                    2.34714,
                    -0.42115,
                    0.33932
                ],
                [
                    -0.42078,
                    2.34708,
                    -0.33968
                ],
                [
                    0.12329,
                    -0.12329,
                    2.6017
                ]
            ],
            [
                [
                    2.34708,
                    0.42062,
                    -0.33979
                ],
                [
                    0.42078,
                    2.34708,
                    -0.33968
                ],
                [
                    -0.12329,
                    -0.12329,
                    2.6017
                ]
            ],
            [
                [
                    2.34714,
                    0.42115,
                    0.33932
                ],
                [
                    0.42101,
                    2.34713,
                    0.33942
                ],
                [
                    0.12329,
                    0.12329,
                    2.6017
                ]
            ],
            [
                [
                    2.34714,
                    0.42115,
                    -0.33932
                ],
                [
                    0.42101,
                    2.34713,
                    -0.33942
                ],
                [
                    -0.12338,
                    -0.12338,
                    2.60166
                ]
            ],
            [
                [
                    2.34708,
                    -0.42062,
                    -0.33979
                ],
                [
                    -0.42101,
                    2.34713,
                    0.33942
                ],
                [
                    -0.12329,
                    0.12329,
                    2.6017
                ]
            ],
            [
                [
                    -2.1527,
                    -0.08393,
                    0.0
                ],
                [
                    -0.08357,
                    -2.15256,
                    -0.0
                ],
                [
                    5e-05,
                    -5e-05,
                    -2.41157
                ]
            ],
            [
                [
                    -3.1776,
                    0.0,
                    0.0
                ],
                [
                    -0.0,
                    -3.17758,
                    0.0
                ],
                [
                    -0.0,
                    0.0,
                    -2.73026
                ]
            ],
            [
                [
                    -2.15212,
                    0.08321,
                    0.0
                ],
                [
                    0.08357,
                    -2.15256,
                    0.0
                ],
                [
                    -5e-05,
                    -5e-05,
                    -2.41157
                ]
            ],
            [
                [
                    -2.1527,
                    0.08393,
                    0.0
                ],
                [
                    0.08358,
                    -2.15225,
                    0.0
                ],
                [
                    5e-05,
                    5e-05,
                    -2.41157
                ]
            ],
            [
                [
                    -2.15212,
                    -0.08321,
                    0.0
                ],
                [
                    -0.08358,
                    -2.15225,
                    0.0
                ],
                [
                    -5e-05,
                    5e-05,
                    -2.41157
                ]
            ],
            [
                [
                    -3.1776,
                    0.0,
                    0.0
                ],
                [
                    -0.0,
                    -3.17758,
                    0.0
                ],
                [
                    -0.0,
                    0.0,
                    -2.73026
                ]
            ],
            [
                [
                    -2.9851,
                    0.0,
                    0.0
                ],
                [
                    -0.0,
                    -2.98509,
                    0.0
                ],
                [
                    -0.0,
                    0.0,
                    -4.00455
                ]
            ],
            [
                [
                    -2.9851,
                    0.0,
                    0.0
                ],
                [
                    -0.0,
                    -2.98509,
                    0.0
                ],
                [
                    -0.0,
                    0.0,
                    -4.00455
                ]
            ]
        ]
    },
    "band_gap": 0.9937999999999998,
    "is_direct": false,
    "formula": "KBa4Sb3O"
}