{
    "mp_id": "mp-559519",
    "nelements": 4,
    "nsites": 32,
    "elements": [
        "As",
        "Na",
        "O",
        "Ti"
    ],
    "structure": {
        "@module": "pymatgen.core.structure",
        "@class": "Structure",
        "charge": null,
        "lattice": {
            "matrix": [
                [
                    7.8870278,
                    -3.61641565,
                    -0.00122953
                ],
                [
                    7.8870278,
                    3.61641565,
                    -0.00122953
                ],
                [
                    -0.0354573,
                    0.0,
                    7.70122807
                ]
            ],
            "a": 8.676616344133338,
            "b": 8.676616344133338,
            "c": 7.701309694219498,
            "alpha": 90.24790743166692,
            "beta": 90.24790743166692,
            "gamma": 49.26547305956857,
            "volume": 439.3204104227634
        },
        "sites": [
            {
                "species": [
                    {
                        "element": "Na",
                        "occu": 1
                    }
                ],
                "abc": [
                    0.74442113,
                    0.25557887,
                    0.0
                ],
                "xyz": [
                    7.8870278,
                    -1.767856799445369,
                    -0.00122953
                ],
                "label": "Na",
                "properties": {}
            },
            {
                "species": [
                    {
                        "element": "Na",
                        "occu": 1
                    }
                ],
                "abc": [
                    0.36999227,
                    0.36999227,
                    0.27628216
                ],
                "xyz": [
                    5.826482419118445,
                    0.0,
                    2.126802092640765
                ],
                "label": "Na",
                "properties": {}
            },
            {
                "species": [
                    {
                        "element": "Na",
                        "occu": 1
                    }
                ],
                "abc": [
                    0.10787592,
                    0.10787592,
                    0.23096227
                ],
                "xyz": [
                    1.693451461485081,
                    0.0,
                    1.7784278434750838
                ],
                "label": "Na",
                "properties": {}
            },
            {
                "species": [
                    {
                        "element": "Na",
                        "occu": 1
                    }
                ],
                "abc": [
                    0.89212408,
                    0.89212408,
                    0.76903773
                ],
                "xyz": [
                    14.045146838514919,
                    0.0,
                    5.920341166524916
                ],
                "label": "Na",
                "properties": {}
            },
            {
                "species": [
                    {
                        "element": "Na",
                        "occu": 1
                    }
                ],
                "abc": [
                    0.0,
                    0.5,
                    0.5
                ],
                "xyz": [
                    3.92578525,
                    1.808207825,
                    3.84999927
                ],
                "label": "Na",
                "properties": {}
            },
            {
                "species": [
                    {
                        "element": "Na",
                        "occu": 1
                    }
                ],
                "abc": [
                    0.25557887,
                    0.74442113,
                    0.0
                ],
                "xyz": [
                    7.8870278,
                    1.767856799445369,
                    -0.00122953
                ],
                "label": "Na",
                "properties": {}
            },
            {
                "species": [
                    {
                        "element": "Na",
                        "occu": 1
                    }
                ],
                "abc": [
                    0.63000773,
                    0.63000773,
                    0.72371784
                ],
                "xyz": [
                    9.912115880881556,
                    0.0,
                    5.5719669173592346
                ],
                "label": "Na",
                "properties": {}
            },
            {
                "species": [
                    {
                        "element": "Na",
                        "occu": 1
                    }
                ],
                "abc": [
                    0.5,
                    0.0,
                    0.5
                ],
                "xyz": [
                    3.92578525,
                    -1.808207825,
                    3.84999927
                ],
                "label": "Na",
                "properties": {}
            },
            {
                "species": [
                    {
                        "element": "Ti",
                        "occu": 1
                    }
                ],
                "abc": [
                    0.5,
                    0.0,
                    0.0
                ],
                "xyz": [
                    3.9435139,
                    -1.808207825,
                    -0.000614765
                ],
                "label": "Ti",
                "properties": {}
            },
            {
                "species": [
                    {
                        "element": "Ti",
                        "occu": 1
                    }
                ],
                "abc": [
                    0.0,
                    0.5,
                    0.0
                ],
                "xyz": [
                    3.9435139,
                    1.808207825,
                    -0.000614765
                ],
                "label": "Ti",
                "properties": {}
            },
            {
                "species": [
                    {
                        "element": "As",
                        "occu": 1
                    }
                ],
                "abc": [
                    0.87067818,
                    0.87067818,
                    0.28123278
                ],
                "xyz": [
                    13.724154265976514,
                    0.0,
                    2.163696729654824
                ],
                "label": "As",
                "properties": {}
            },
            {
                "species": [
                    {
                        "element": "As",
                        "occu": 1
                    }
                ],
                "abc": [
                    0.60982327,
                    0.60982327,
                    0.24049698
                ],
                "xyz": [
                    9.610858793584859,
                    0.0,
                    1.8506225011159023
                ],
                "label": "As",
                "properties": {}
            },
            {
                "species": [
                    {
                        "element": "As",
                        "occu": 1
                    }
                ],
                "abc": [
                    0.12932182,
                    0.12932182,
                    0.71876722
                ],
                "xyz": [
                    2.014444034023486,
                    0.0,
                    5.535072280345176
                ],
                "label": "As",
                "properties": {}
            },
            {
                "species": [
                    {
                        "element": "As",
                        "occu": 1
                    }
                ],
                "abc": [
                    0.39017673,
                    0.39017673,
                    0.75950302
                ],
                "xyz": [
                    6.127739506415143,
                    0.0,
                    5.848146508884098
                ],
                "label": "As",
                "properties": {}
            },
            {
                "species": [
                    {
                        "element": "O",
                        "occu": 1
                    }
                ],
                "abc": [
                    0.83763335,
                    0.44228785,
                    0.12571788
                ],
                "xyz": [
                    10.090316469622836,
                    -1.4297336533570753,
                    0.9666083648438556
                ],
                "label": "O",
                "properties": {}
            },
            {
                "species": [
                    {
                        "element": "O",
                        "occu": 1
                    }
                ],
                "abc": [
                    0.49638523,
                    0.49638523,
                    0.78296778
                ],
                "xyz": [
                    7.802246293572994,
                    0.0,
                    6.028592804177901
                ],
                "label": "O",
                "properties": {}
            },
            {
                "species": [
                    {
                        "element": "O",
                        "occu": 1
                    }
                ],
                "abc": [
                    0.16236665,
                    0.55771215,
                    0.87428212
                ],
                "xyz": [
                    5.648281830377164,
                    1.4297336533570748,
                    6.732160645156145
                ],
                "label": "O",
                "properties": {}
            },
            {
                "species": [
                    {
                        "element": "O",
                        "occu": 1
                    }
                ],
                "abc": [
                    0.85965999,
                    0.85965999,
                    0.49817492
                ],
                "xyz": [
                    13.54266054176453,
                    0.0,
                    3.8344447221789952
                ],
                "label": "O",
                "properties": {}
            },
            {
                "species": [
                    {
                        "element": "O",
                        "occu": 1
                    }
                ],
                "abc": [
                    0.01630208,
                    0.61635769,
                    0.21836917
                ],
                "xyz": [
                    4.982062412760165,
                    2.1700504988742964,
                    1.6809329074595938
                ],
                "label": "O",
                "properties": {}
            },
            {
                "species": [
                    {
                        "element": "O",
                        "occu": 1
                    }
                ],
                "abc": [
                    0.61635769,
                    0.01630208,
                    0.21836917
                ],
                "xyz": [
                    4.982062412760165,
                    -2.1700504988742964,
                    1.6809329074595938
                ],
                "label": "O",
                "properties": {}
            },
            {
                "species": [
                    {
                        "element": "O",
                        "occu": 1
                    }
                ],
                "abc": [
                    0.55771215,
                    0.16236665,
                    0.87428212
                ],
                "xyz": [
                    5.648281830377164,
                    -1.4297336533570748,
                    6.732160645156145
                ],
                "label": "O",
                "properties": {}
            },
            {
                "species": [
                    {
                        "element": "O",
                        "occu": 1
                    }
                ],
                "abc": [
                    0.03448751,
                    0.03448751,
                    0.81967516
                ],
                "xyz": [
                    0.5149444321948881,
                    0.0,
                    6.3124205436174
                ],
                "label": "O",
                "properties": {}
            },
            {
                "species": [
                    {
                        "element": "O",
                        "occu": 1
                    }
                ],
                "abc": [
                    0.44228785,
                    0.83763335,
                    0.12571788
                ],
                "xyz": [
                    10.090316469622836,
                    1.4297336533570753,
                    0.9666083648438556
                ],
                "label": "O",
                "properties": {}
            },
            {
                "species": [
                    {
                        "element": "O",
                        "occu": 1
                    }
                ],
                "abc": [
                    0.75958172,
                    0.75958172,
                    0.92374976
                ],
                "xyz": [
                    11.948930611658385,
                    0.0,
                    7.11213972434338
                ],
                "label": "O",
                "properties": {}
            },
            {
                "species": [
                    {
                        "element": "O",
                        "occu": 1
                    }
                ],
                "abc": [
                    0.38364231,
                    0.98369792,
                    0.78163083
                ],
                "xyz": [
                    10.756535887239837,
                    2.1700504988742964,
                    6.017836102540406
                ],
                "label": "O",
                "properties": {}
            },
            {
                "species": [
                    {
                        "element": "O",
                        "occu": 1
                    }
                ],
                "abc": [
                    0.24041828,
                    0.24041828,
                    0.07625024
                ],
                "xyz": [
                    3.7896676883416163,
                    0.0,
                    0.58662928565662
                ],
                "label": "O",
                "properties": {}
            },
            {
                "species": [
                    {
                        "element": "O",
                        "occu": 1
                    }
                ],
                "abc": [
                    0.14034001,
                    0.14034001,
                    0.50182508
                ],
                "xyz": [
                    2.195937758235472,
                    0.0,
                    3.864324287821005
                ],
                "label": "O",
                "properties": {}
            },
            {
                "species": [
                    {
                        "element": "O",
                        "occu": 1
                    }
                ],
                "abc": [
                    0.50361477,
                    0.50361477,
                    0.21703222
                ],
                "xyz": [
                    7.936352006427007,
                    0.0,
                    1.6701762058220992
                ],
                "label": "O",
                "properties": {}
            },
            {
                "species": [
                    {
                        "element": "O",
                        "occu": 1
                    }
                ],
                "abc": [
                    0.98369792,
                    0.38364231,
                    0.78163083
                ],
                "xyz": [
                    10.756535887239837,
                    -2.1700504988742964,
                    6.017836102540406
                ],
                "label": "O",
                "properties": {}
            },
            {
                "species": [
                    {
                        "element": "O",
                        "occu": 1
                    }
                ],
                "abc": [
                    0.34297737,
                    0.34297737,
                    0.5626115
                ],
                "xyz": [
                    5.390195419182822,
                    0.0,
                    4.331956074373333
                ],
                "label": "O",
                "properties": {}
            },
            {
                "species": [
                    {
                        "element": "O",
                        "occu": 1
                    }
                ],
                "abc": [
                    0.96551249,
                    0.96551249,
                    0.18032484
                ],
                "xyz": [
                    15.223653867805112,
                    0.0,
                    1.3863484663825991
                ],
                "label": "O",
                "properties": {}
            },
            {
                "species": [
                    {
                        "element": "O",
                        "occu": 1
                    }
                ],
                "abc": [
                    0.65702263,
                    0.65702263,
                    0.4373885
                ],
                "xyz": [
                    10.34840288081718,
                    0.0,
                    3.366812935626667
                ],
                "label": "O",
                "properties": {}
            }
        ]
    },
    "spacegroup": {
        "source": "spglib",
        "symbol": "C2/m",
        "number": 12,
        "point_group": "2/m",
        "crystal_system": "monoclinic",
        "hall": "-C 2y"
    },
    "dielectric": {
        "epsilon_ionic": [
            [
                3.84752879,
                -2e-08,
                0.11046136
            ],
            [
                -2e-08,
                11.91479901,
                -1e-08
            ],
            [
                0.11046136,
                -1e-08,
                3.83402949
            ]
        ],
        "epsilon_ionic_avg": 6.532119096666666,
        "epsilon_ionic_eig": [
            3.9514465237594973,
            3.7301117562405004,
            11.91479901
        ],
        "epsilon_electronic": [
            [
                2.92019565,
                0.0,
                -0.00100927
            ],
            [
                0.0,
                3.62472306,
                0.0
            ],
            [
                -0.0010106,
                0.0,
                2.89986268
            ]
        ],
        "epsilon_electronic_avg": 3.148260463333333,
        "epsilon_electronic_eig": [
            2.9202456901194926,
            2.8998126398805075,
            3.62472306
        ]
    },
    "phonon": {
        "lowest_freq": -0.15124356104213635,
        "frequency": [
            -0.15124356104213635,
            -0.14201484335890105,
            -0.1039701534610528,
            2.9273710608368932,
            2.964062618668151,
            3.323847981907309,
            3.3394071610061484,
            3.3938936470993215,
            3.5538246483938316,
            3.7128049543483614,
            3.745264303438612,
            3.8463479903182423,
            3.9554653946215668,
            4.143427307850127,
            4.20408750024165,
            4.269536476737509,
            4.279553783183872,
            4.431778207794867,
            4.466021040094481,
            4.659607762936125,
            4.8020026865153795,
            4.809648944962717,
            4.911384647171398,
            5.064457321756411,
            5.195703047943667,
            5.329996075019064,
            5.532392972877358,
            5.5649339895932055,
            5.629762603093121,
            5.8236117915848515,
            5.872294447970699,
            5.945145662119139,
            6.021694310043172,
            6.0543226532029175,
            6.074586978425239,
            6.077117241043429,
            6.1495104365918705,
            6.244936706754116,
            6.3919429197952375,
            6.573617691877907,
            6.60247208780255,
            6.6272921116837,
            6.878844172108237,
            6.982412246989943,
            7.316688425375292,
            7.408928094213263,
            7.427326186509035,
            7.501756362420957,
            7.878902043559472,
            7.989810182376534,
            8.033407900091865,
            8.141375892853842,
            8.266467517582099,
            8.344659864325674,
            8.803616863463432,
            9.438171259539223,
            9.44874636360799,
            9.873871725957438,
            9.992221155066531,
            10.181655397507347,
            10.33338883394362,
            10.477061363743545,
            10.48529806191955,
            10.793948071279104,
            10.916791069028635,
            11.35496697852438,
            11.856899898997858,
            11.95334082735254,
            12.413707771841581,
            13.777065493620084,
            13.796684512244136,
            13.918763811395891,
            14.207542328885655,
            14.335705601840047,
            14.506697111260264,
            14.817075211297432,
            15.472700397268767,
            15.77924784039087,
            17.331952184292664,
            19.916851658190907,
            21.540389396482986,
            21.572527285072184,
            21.60058892772736,
            22.540488471868176,
            22.648061512730035,
            22.741299026487145,
            24.636652511002204,
            25.30528883487698,
            25.39453727205418,
            25.532417470534334,
            25.54943261532494,
            25.678725791337666,
            26.571078680755132,
            26.817773940230484,
            26.98865847784281,
            27.102184027190866
        ]
    },
    "born_effective_charge": {
        "avg_abs_trace": 2.0672420833333334,
        "tensors": [
            [
                [
                    1.24488,
                    -1e-05,
                    0.0974
                ],
                [
                    -0.0,
                    1.00319,
                    0.0
                ],
                [
                    0.01922,
                    2e-05,
                    0.82037
                ]
            ],
            [
                [
                    1.10208,
                    0.0,
                    0.00999
                ],
                [
                    -1e-05,
                    1.06917,
                    -1e-05
                ],
                [
                    -0.00389,
                    0.0,
                    1.20296
                ]
            ],
            [
                [
                    1.13426,
                    0.0,
                    -0.02881
                ],
                [
                    1e-05,
                    1.07473,
                    -0.0
                ],
                [
                    0.01414,
                    0.0,
                    1.16227
                ]
            ],
            [
                [
                    1.13429,
                    0.0,
                    -0.02881
                ],
                [
                    -1e-05,
                    1.07473,
                    0.0
                ],
                [
                    0.01413,
                    0.0,
                    1.16228
                ]
            ],
            [
                [
                    0.8571,
                    -0.03115,
                    -0.01329
                ],
                [
                    0.03413,
                    1.01517,
                    -0.14475
                ],
                [
                    -0.09169,
                    -0.48669,
                    1.26049
                ]
            ],
            [
                [
                    1.24488,
                    1e-05,
                    0.0974
                ],
                [
                    -0.0,
                    1.0032,
                    0.0
                ],
                [
                    0.01922,
                    -2e-05,
                    0.82037
                ]
            ],
            [
                [
                    1.10211,
                    0.0,
                    0.00996
                ],
                [
                    1e-05,
                    1.06917,
                    1e-05
                ],
                [
                    -0.00398,
                    0.0,
                    1.20293
                ]
            ],
            [
                [
                    0.8571,
                    0.03115,
                    -0.01329
                ],
                [
                    -0.03413,
                    1.01517,
                    0.14475
                ],
                [
                    -0.09169,
                    0.48669,
                    1.26049
                ]
            ],
            [
                [
                    4.11306,
                    0.07974,
                    0.39082
                ],
                [
                    0.06038,
                    8.57256,
                    -0.24404
                ],
                [
                    -0.36037,
                    -0.28223,
                    4.02127
                ]
            ],
            [
                [
                    4.11306,
                    -0.07974,
                    0.39082
                ],
                [
                    -0.06038,
                    8.57256,
                    0.24404
                ],
                [
                    -0.36037,
                    0.28223,
                    4.02127
                ]
            ],
            [
                [
                    3.38793,
                    0.0,
                    -0.01854
                ],
                [
                    9e-05,
                    3.46475,
                    7e-05
                ],
                [
                    0.54562,
                    0.0,
                    3.17401
                ]
            ],
            [
                [
                    3.35517,
                    0.0,
                    -0.48496
                ],
                [
                    -6e-05,
                    3.42245,
                    0.00013
                ],
                [
                    -0.02462,
                    0.0,
                    3.15682
                ]
            ],
            [
                [
                    3.38758,
                    0.0,
                    -0.01905
                ],
                [
                    -9e-05,
                    3.46475,
                    -7e-05
                ],
                [
                    0.54576,
                    0.0,
                    3.17243
                ]
            ],
            [
                [
                    3.35521,
                    0.0,
                    -0.48452
                ],
                [
                    6e-05,
                    3.42245,
                    -0.00013
                ],
                [
                    -0.02612,
                    0.0,
                    3.15691
                ]
            ],
            [
                [
                    -2.06783,
                    0.53141,
                    0.70713
                ],
                [
                    0.75848,
                    -2.07063,
                    -0.80002
                ],
                [
                    0.72723,
                    -0.55066,
                    -1.53536
                ]
            ],
            [
                [
                    -2.3682,
                    0.0,
                    -0.16657
                ],
                [
                    -0.0001,
                    -1.16198,
                    -1e-05
                ],
                [
                    0.1042,
                    0.0,
                    -1.0737
                ]
            ],
            [
                [
                    -2.06789,
                    0.53248,
                    0.70801
                ],
                [
                    0.75808,
                    -2.07065,
                    -0.79984
                ],
                [
                    0.72772,
                    -0.54937,
                    -1.5344
                ]
            ],
            [
                [
                    -1.12499,
                    0.0,
                    -0.10246
                ],
                [
                    2e-05,
                    -1.17938,
                    4e-05
                ],
                [
                    0.0282,
                    0.0,
                    -2.27488
                ]
            ],
            [
                [
                    -1.63467,
                    -0.49476,
                    -0.75649
                ],
                [
                    -0.74639,
                    -2.05958,
                    -0.80719
                ],
                [
                    -0.74624,
                    -0.51169,
                    -2.00226
                ]
            ],
            [
                [
                    -1.63467,
                    0.49476,
                    -0.75649
                ],
                [
                    0.74612,
                    -2.05954,
                    0.80697
                ],
                [
                    -0.74624,
                    0.51169,
                    -2.00226
                ]
            ],
            [
                [
                    -2.06789,
                    -0.53248,
                    0.70801
                ],
                [
                    -0.75848,
                    -2.07063,
                    0.80002
                ],
                [
                    0.72772,
                    0.54937,
                    -1.5344
                ]
            ],
            [
                [
                    -2.1594,
                    0.0,
                    0.50061
                ],
                [
                    -0.0001,
                    -1.18683,
                    6e-05
                ],
                [
                    0.03547,
                    0.0,
                    -1.13564
                ]
            ],
            [
                [
                    -2.06783,
                    -0.53141,
                    0.70713
                ],
                [
                    -0.75808,
                    -2.07065,
                    0.79984
                ],
                [
                    0.72723,
                    0.55066,
                    -1.53536
                ]
            ],
            [
                [
                    -0.96386,
                    0.0,
                    -0.02832
                ],
                [
                    1e-05,
                    -6.68706,
                    -0.00012
                ],
                [
                    0.09845,
                    0.0,
                    -1.16352
                ]
            ],
            [
                [
                    -1.63551,
                    0.49623,
                    -0.75668
                ],
                [
                    0.74639,
                    -2.05958,
                    0.80719
                ],
                [
                    -0.74697,
                    0.51334,
                    -2.00174
                ]
            ],
            [
                [
                    -0.96383,
                    0.0,
                    -0.02856
                ],
                [
                    -1e-05,
                    -6.68706,
                    0.00012
                ],
                [
                    0.09857,
                    0.0,
                    -1.16324
                ]
            ],
            [
                [
                    -1.12489,
                    0.0,
                    -0.10173
                ],
                [
                    -2e-05,
                    -1.17938,
                    -4e-05
                ],
                [
                    0.02692,
                    0.0,
                    -2.26635
                ]
            ],
            [
                [
                    -2.37034,
                    0.0,
                    -0.16709
                ],
                [
                    0.0001,
                    -1.16198,
                    1e-05
                ],
                [
                    0.09578,
                    0.0,
                    -1.07399
                ]
            ],
            [
                [
                    -1.63551,
                    -0.49623,
                    -0.75668
                ],
                [
                    -0.74612,
                    -2.05954,
                    -0.80697
                ],
                [
                    -0.74697,
                    -0.51334,
                    -2.00174
                ]
            ],
            [
                [
                    -1.17022,
                    0.0,
                    -0.05808
                ],
                [
                    3e-05,
                    -1.14637,
                    0.0001
                ],
                [
                    -0.32043,
                    0.0,
                    -2.08071
                ]
            ],
            [
                [
                    -2.16104,
                    0.0,
                    0.50108
                ],
                [
                    0.0001,
                    -1.18683,
                    -6e-05
                ],
                [
                    0.03504,
                    0.0,
                    -1.13559
                ]
            ],
            [
                [
                    -1.17012,
                    0.0,
                    -0.05796
                ],
                [
                    -3e-05,
                    -1.14637,
                    -0.0001
                ],
                [
                    -0.32104,
                    0.0,
                    -2.07974
                ]
            ]
        ]
    },
    "band_gap": 3.3243,
    "is_direct": false,
    "formula": "Na4TiAs2O9"
}