{
    "mp_id": "mp-540586",
    "nelements": 3,
    "nsites": 24,
    "elements": [
        "O",
        "Sn",
        "Tl"
    ],
    "structure": {
        "@module": "pymatgen.core.structure",
        "@class": "Structure",
        "charge": null,
        "lattice": {
            "matrix": [
                [
                    10.18615992,
                    0.0,
                    0.0
                ],
                [
                    0.0,
                    3.24176368,
                    0.0
                ],
                [
                    0.0,
                    0.0,
                    12.45293249
                ]
            ],
            "a": 10.18615992,
            "b": 3.24176368,
            "c": 12.45293249,
            "alpha": 90.0,
            "beta": 90.0,
            "gamma": 90.0,
            "volume": 411.20981879200014
        },
        "sites": [
            {
                "species": [
                    {
                        "element": "Tl",
                        "occu": 1
                    }
                ],
                "abc": [
                    0.63405229,
                    0.75,
                    0.3951257
                ],
                "xyz": [
                    6.458558023582216,
                    2.43132276,
                    4.920473667163994
                ],
                "label": "Tl",
                "properties": {}
            },
            {
                "species": [
                    {
                        "element": "Tl",
                        "occu": 1
                    }
                ],
                "abc": [
                    0.36594771,
                    0.25,
                    0.6048743
                ],
                "xyz": [
                    3.727601896417783,
                    0.81044092,
                    7.5324588228360065
                ],
                "label": "Tl",
                "properties": {}
            },
            {
                "species": [
                    {
                        "element": "Tl",
                        "occu": 1
                    }
                ],
                "abc": [
                    0.13405229,
                    0.75,
                    0.1048743
                ],
                "xyz": [
                    1.3654780635822166,
                    2.43132276,
                    1.305992577836007
                ],
                "label": "Tl",
                "properties": {}
            },
            {
                "species": [
                    {
                        "element": "Tl",
                        "occu": 1
                    }
                ],
                "abc": [
                    0.86594771,
                    0.25,
                    0.8951257
                ],
                "xyz": [
                    8.820681856417783,
                    0.81044092,
                    11.146939912163994
                ],
                "label": "Tl",
                "properties": {}
            },
            {
                "species": [
                    {
                        "element": "Tl",
                        "occu": 1
                    }
                ],
                "abc": [
                    0.79367403,
                    0.75,
                    0.15201827
                ],
                "xyz": [
                    8.084490593930878,
                    2.43132276,
                    1.8930732535565924
                ],
                "label": "Tl",
                "properties": {}
            },
            {
                "species": [
                    {
                        "element": "Tl",
                        "occu": 1
                    }
                ],
                "abc": [
                    0.20632597,
                    0.25,
                    0.84798173
                ],
                "xyz": [
                    2.101669326069122,
                    0.81044092,
                    10.559859236443408
                ],
                "label": "Tl",
                "properties": {}
            },
            {
                "species": [
                    {
                        "element": "Tl",
                        "occu": 1
                    }
                ],
                "abc": [
                    0.29367403,
                    0.75,
                    0.34798173
                ],
                "xyz": [
                    2.9914106339308772,
                    2.43132276,
                    4.333392991443407
                ],
                "label": "Tl",
                "properties": {}
            },
            {
                "species": [
                    {
                        "element": "Tl",
                        "occu": 1
                    }
                ],
                "abc": [
                    0.70632597,
                    0.25,
                    0.65201827
                ],
                "xyz": [
                    7.194749286069122,
                    0.81044092,
                    8.119539498556593
                ],
                "label": "Tl",
                "properties": {}
            },
            {
                "species": [
                    {
                        "element": "Sn",
                        "occu": 1
                    }
                ],
                "abc": [
                    0.96079073,
                    0.25,
                    0.38915654
                ],
                "xyz": [
                    9.786768025433542,
                    0.81044092,
                    4.8461401206619845
                ],
                "label": "Sn",
                "properties": {}
            },
            {
                "species": [
                    {
                        "element": "Sn",
                        "occu": 1
                    }
                ],
                "abc": [
                    0.03920927,
                    0.75,
                    0.61084346
                ],
                "xyz": [
                    0.39939189456645835,
                    2.43132276,
                    7.606792369338016
                ],
                "label": "Sn",
                "properties": {}
            },
            {
                "species": [
                    {
                        "element": "Sn",
                        "occu": 1
                    }
                ],
                "abc": [
                    0.46079073,
                    0.25,
                    0.11084346
                ],
                "xyz": [
                    4.693688065433541,
                    0.81044092,
                    1.3803261243380154
                ],
                "label": "Sn",
                "properties": {}
            },
            {
                "species": [
                    {
                        "element": "Sn",
                        "occu": 1
                    }
                ],
                "abc": [
                    0.53920927,
                    0.75,
                    0.88915654
                ],
                "xyz": [
                    5.492471854566458,
                    2.43132276,
                    11.072606365661985
                ],
                "label": "Sn",
                "properties": {}
            },
            {
                "species": [
                    {
                        "element": "O",
                        "occu": 1
                    }
                ],
                "abc": [
                    0.89195412,
                    0.75,
                    0.48993078
                ],
                "xyz": [
                    9.08558730762287,
                    2.43132276,
                    6.101074928113042
                ],
                "label": "O",
                "properties": {}
            },
            {
                "species": [
                    {
                        "element": "O",
                        "occu": 1
                    }
                ],
                "abc": [
                    0.10804588,
                    0.25,
                    0.51006922
                ],
                "xyz": [
                    1.1005726123771296,
                    0.81044092,
                    6.351857561886958
                ],
                "label": "O",
                "properties": {}
            },
            {
                "species": [
                    {
                        "element": "O",
                        "occu": 1
                    }
                ],
                "abc": [
                    0.39195412,
                    0.75,
                    0.01006922
                ],
                "xyz": [
                    3.9925073476228703,
                    2.43132276,
                    0.12539131688695782
                ],
                "label": "O",
                "properties": {}
            },
            {
                "species": [
                    {
                        "element": "O",
                        "occu": 1
                    }
                ],
                "abc": [
                    0.60804588,
                    0.25,
                    0.98993078
                ],
                "xyz": [
                    6.19365257237713,
                    0.81044092,
                    12.327541173113042
                ],
                "label": "O",
                "properties": {}
            },
            {
                "species": [
                    {
                        "element": "O",
                        "occu": 1
                    }
                ],
                "abc": [
                    0.54474098,
                    0.75,
                    0.19206895
                ],
                "xyz": [
                    5.5488187372575215,
                    2.43132276,
                    2.3918216677751856
                ],
                "label": "O",
                "properties": {}
            },
            {
                "species": [
                    {
                        "element": "O",
                        "occu": 1
                    }
                ],
                "abc": [
                    0.45525902,
                    0.25,
                    0.80793105
                ],
                "xyz": [
                    4.637341182742478,
                    0.81044092,
                    10.061110822224814
                ],
                "label": "O",
                "properties": {}
            },
            {
                "species": [
                    {
                        "element": "O",
                        "occu": 1
                    }
                ],
                "abc": [
                    0.04474098,
                    0.75,
                    0.30793105
                ],
                "xyz": [
                    0.4557387772575216,
                    2.43132276,
                    3.8346445772248146
                ],
                "label": "O",
                "properties": {}
            },
            {
                "species": [
                    {
                        "element": "O",
                        "occu": 1
                    }
                ],
                "abc": [
                    0.95525902,
                    0.25,
                    0.69206895
                ],
                "xyz": [
                    9.730421142742477,
                    0.81044092,
                    8.618287912775186
                ],
                "label": "O",
                "properties": {}
            },
            {
                "species": [
                    {
                        "element": "O",
                        "occu": 1
                    }
                ],
                "abc": [
                    0.78742774,
                    0.25,
                    0.30792751
                ],
                "xyz": [
                    8.020864885084181,
                    0.81044092,
                    3.8346004938438
                ],
                "label": "O",
                "properties": {}
            },
            {
                "species": [
                    {
                        "element": "O",
                        "occu": 1
                    }
                ],
                "abc": [
                    0.21257226,
                    0.75,
                    0.69207249
                ],
                "xyz": [
                    2.165295034915819,
                    2.43132276,
                    8.6183319961562
                ],
                "label": "O",
                "properties": {}
            },
            {
                "species": [
                    {
                        "element": "O",
                        "occu": 1
                    }
                ],
                "abc": [
                    0.28742774,
                    0.25,
                    0.19207249
                ],
                "xyz": [
                    2.9277849250841808,
                    0.81044092,
                    2.3918657511562005
                ],
                "label": "O",
                "properties": {}
            },
            {
                "species": [
                    {
                        "element": "O",
                        "occu": 1
                    }
                ],
                "abc": [
                    0.71257226,
                    0.75,
                    0.80792751
                ],
                "xyz": [
                    7.258374994915819,
                    2.43132276,
                    10.061066738843799
                ],
                "label": "O",
                "properties": {}
            }
        ]
    },
    "spacegroup": {
        "source": "spglib",
        "symbol": "Pnma",
        "number": 62,
        "point_group": "mmm",
        "crystal_system": "orthorhombic",
        "hall": "-P 2ac 2n"
    },
    "dielectric": {
        "epsilon_ionic": [
            [
                11.18804373,
                -4e-07,
                2.7e-07
            ],
            [
                -4e-07,
                11.46912695,
                -1.5e-07
            ],
            [
                2.7e-07,
                -1.5e-07,
                15.2737254
            ]
        ],
        "epsilon_ionic_avg": 12.64363202666667,
        "epsilon_ionic_eig": [
            11.188043729999412,
            11.46912695000057,
            15.273725400000025
        ],
        "epsilon_electronic": [
            [
                6.62820436,
                0.0,
                0.0
            ],
            [
                0.0,
                8.74915383,
                0.0
            ],
            [
                0.0,
                0.0,
                7.0993884
            ]
        ],
        "epsilon_electronic_avg": 7.492248863333333,
        "epsilon_electronic_eig": [
            6.62820436,
            8.74915383,
            7.0993884
        ]
    },
    "phonon": {
        "lowest_freq": -0.03533096787253302,
        "frequency": [
            -0.03533096787253302,
            -0.031600733229031855,
            -0.0179810960549491,
            0.6974345974840733,
            0.8374138188703818,
            0.8446805473763559,
            0.9174400488227762,
            0.9487457013318936,
            0.9938659068611957,
            1.036682914963416,
            1.1066526572239639,
            1.1135306912377332,
            1.169836292902293,
            1.230061635269203,
            1.2339621047606217,
            1.440680734801338,
            1.6007916057161928,
            1.7711655651853775,
            1.857672570499189,
            1.8602117683375587,
            1.8856545862036522,
            2.1818935649079845,
            2.262237777536146,
            2.2857435029499253,
            2.6468486876450266,
            2.6752118544033094,
            2.8627490984682047,
            3.0923348488701903,
            3.4420496814834167,
            3.4467893667350396,
            3.449463681541683,
            3.693051073262554,
            3.896839359165501,
            4.136921358095823,
            5.785422135288205,
            5.954998749493192,
            7.001405568979551,
            7.07016087270979,
            7.092621853380895,
            7.19094408482301,
            7.247454207830483,
            7.3391391994535145,
            7.36216370780861,
            7.389206861462908,
            9.231132038200183,
            9.255829643452186,
            9.623297746030325,
            9.86590212274913,
            9.901117430471473,
            10.701151071265864,
            11.71286158166581,
            11.714863218052505,
            11.986956188507735,
            12.50597674684821,
            12.552849747397026,
            12.617554870342929,
            12.658434136327433,
            12.88095325757007,
            13.045834203777263,
            13.338536926532626,
            13.372137728646614,
            13.449971354843441,
            13.50646737539639,
            14.489859642760791,
            14.622203855408095,
            15.398376071736156,
            15.427819187528671,
            15.459056225122383,
            16.819672079287905,
            16.8629548837306,
            16.884077546909328,
            16.908262227133743
        ]
    },
    "born_effective_charge": {
        "avg_abs_trace": 2.6222030555555556,
        "tensors": [
            [
                [
                    2.01684,
                    -0.0,
                    -0.19493
                ],
                [
                    0.00033,
                    1.56507,
                    0.00156
                ],
                [
                    -0.35585,
                    -0.0,
                    2.11192
                ]
            ],
            [
                [
                    2.01671,
                    0.0,
                    -0.1941
                ],
                [
                    -0.00033,
                    1.56507,
                    -0.00156
                ],
                [
                    -0.356,
                    -0.0,
                    2.11222
                ]
            ],
            [
                [
                    2.01684,
                    -0.0,
                    0.19493
                ],
                [
                    0.00033,
                    1.56507,
                    -0.00156
                ],
                [
                    0.356,
                    -0.0,
                    2.11222
                ]
            ],
            [
                [
                    2.01671,
                    0.0,
                    0.1941
                ],
                [
                    -0.00033,
                    1.56507,
                    0.00156
                ],
                [
                    0.35585,
                    -0.0,
                    2.11192
                ]
            ],
            [
                [
                    1.81532,
                    -0.0,
                    -0.02709
                ],
                [
                    0.00049,
                    1.59587,
                    -0.00116
                ],
                [
                    0.14993,
                    -0.0,
                    2.30229
                ]
            ],
            [
                [
                    1.81462,
                    0.0,
                    -0.02717
                ],
                [
                    -0.00049,
                    1.59587,
                    0.00116
                ],
                [
                    0.14953,
                    -0.0,
                    2.30246
                ]
            ],
            [
                [
                    1.81532,
                    -0.0,
                    0.02709
                ],
                [
                    0.00049,
                    1.59587,
                    0.00116
                ],
                [
                    -0.14953,
                    -0.0,
                    2.30246
                ]
            ],
            [
                [
                    1.81462,
                    0.0,
                    0.02717
                ],
                [
                    -0.00049,
                    1.59587,
                    -0.00116
                ],
                [
                    -0.14993,
                    -0.0,
                    2.30229
                ]
            ],
            [
                [
                    3.95067,
                    0.0,
                    0.22737
                ],
                [
                    -0.00013,
                    4.45871,
                    0.00045
                ],
                [
                    0.37033,
                    0.0,
                    3.78338
                ]
            ],
            [
                [
                    3.9507,
                    0.0,
                    0.22797
                ],
                [
                    0.00013,
                    4.45871,
                    -0.00045
                ],
                [
                    0.37056,
                    -0.0,
                    3.78322
                ]
            ],
            [
                [
                    3.95067,
                    0.0,
                    -0.22737
                ],
                [
                    -0.00013,
                    4.45871,
                    -0.00045
                ],
                [
                    -0.37056,
                    -0.0,
                    3.78322
                ]
            ],
            [
                [
                    3.9507,
                    0.0,
                    -0.22797
                ],
                [
                    0.00013,
                    4.45871,
                    0.00045
                ],
                [
                    -0.37033,
                    -0.0,
                    3.78338
                ]
            ],
            [
                [
                    -2.27795,
                    0.0,
                    -0.06748
                ],
                [
                    0.00014,
                    -2.45685,
                    -0.0006
                ],
                [
                    -0.17222,
                    -0.0,
                    -2.70716
                ]
            ],
            [
                [
                    -2.27786,
                    -0.0,
                    -0.0673
                ],
                [
                    -0.00014,
                    -2.45685,
                    0.0006
                ],
                [
                    -0.17249,
                    -0.0,
                    -2.70734
                ]
            ],
            [
                [
                    -2.27795,
                    0.0,
                    0.06748
                ],
                [
                    0.00014,
                    -2.45685,
                    0.0006
                ],
                [
                    0.17249,
                    -0.0,
                    -2.70734
                ]
            ],
            [
                [
                    -2.27786,
                    -0.0,
                    0.0673
                ],
                [
                    -0.00014,
                    -2.45685,
                    -0.0006
                ],
                [
                    0.17222,
                    -0.0,
                    -2.70716
                ]
            ],
            [
                [
                    -2.93866,
                    0.0,
                    -0.35547
                ],
                [
                    -0.00047,
                    -2.05204,
                    0.00013
                ],
                [
                    -0.29591,
                    -0.0,
                    -2.50419
                ]
            ],
            [
                [
                    -2.93885,
                    -0.0,
                    -0.35559
                ],
                [
                    0.00047,
                    -2.05204,
                    -0.00013
                ],
                [
                    -0.29611,
                    -0.0,
                    -2.50463
                ]
            ],
            [
                [
                    -2.93866,
                    0.0,
                    0.35547
                ],
                [
                    -0.00047,
                    -2.05204,
                    -0.00013
                ],
                [
                    0.29611,
                    -0.0,
                    -2.50463
                ]
            ],
            [
                [
                    -2.93885,
                    -0.0,
                    0.35559
                ],
                [
                    0.00047,
                    -2.05204,
                    0.00013
                ],
                [
                    0.29591,
                    -0.0,
                    -2.50419
                ]
            ],
            [
                [
                    -2.56577,
                    -0.0,
                    0.36317
                ],
                [
                    -0.00059,
                    -3.11076,
                    -0.00038
                ],
                [
                    0.41083,
                    -0.0,
                    -2.98596
                ]
            ],
            [
                [
                    -2.56577,
                    0.0,
                    0.36238
                ],
                [
                    0.00059,
                    -3.11076,
                    0.00038
                ],
                [
                    0.41068,
                    -0.0,
                    -2.98622
                ]
            ],
            [
                [
                    -2.56577,
                    -0.0,
                    -0.36317
                ],
                [
                    -0.00059,
                    -3.11076,
                    0.00038
                ],
                [
                    -0.41068,
                    -0.0,
                    -2.98622
                ]
            ],
            [
                [
                    -2.56577,
                    0.0,
                    -0.36238
                ],
                [
                    0.00059,
                    -3.11076,
                    -0.00038
                ],
                [
                    -0.41083,
                    -0.0,
                    -2.98596
                ]
            ]
        ]
    },
    "band_gap": 1.0194,
    "is_direct": false,
    "formula": "Tl2SnO3"
}