{
    "mp_id": "mp-555867",
    "nelements": 4,
    "nsites": 28,
    "elements": [
        "Ba",
        "Bi",
        "Nb",
        "O"
    ],
    "structure": {
        "@module": "pymatgen.core.structure",
        "@class": "Structure",
        "charge": null,
        "lattice": {
            "matrix": [
                [
                    12.58908925,
                    -2.82994732,
                    0.0
                ],
                [
                    12.58908925,
                    2.82994732,
                    0.0
                ],
                [
                    0.0,
                    0.0,
                    5.66616244
                ]
            ],
            "a": 12.903246489873808,
            "b": 12.903246489873808,
            "c": 5.66616244,
            "alpha": 90.0,
            "beta": 90.0,
            "gamma": 25.3382593930858,
            "volume": 403.7306120667666
        },
        "sites": [
            {
                "species": [
                    {
                        "element": "Ba",
                        "occu": 1
                    }
                ],
                "abc": [
                    0.24755074,
                    0.75244926,
                    0.53948327
                ],
                "xyz": [
                    12.58908925,
                    1.4288362135459667,
                    3.0567998414823787
                ],
                "label": "Ba",
                "properties": {}
            },
            {
                "species": [
                    {
                        "element": "Ba",
                        "occu": 1
                    }
                ],
                "abc": [
                    0.75244926,
                    0.24755074,
                    0.03948327
                ],
                "xyz": [
                    12.58908925,
                    -1.4288362135459667,
                    0.2237186214823788
                ],
                "label": "Ba",
                "properties": {}
            },
            {
                "species": [
                    {
                        "element": "Nb",
                        "occu": 1
                    }
                ],
                "abc": [
                    0.66097137,
                    0.16685415,
                    0.53575802
                ],
                "xyz": [
                    10.42156935470766,
                    -1.39832570250485,
                    3.0356919698527682
                ],
                "label": "Nb",
                "properties": {}
            },
            {
                "species": [
                    {
                        "element": "Nb",
                        "occu": 1
                    }
                ],
                "abc": [
                    0.16685415,
                    0.66097137,
                    0.03575802
                ],
                "xyz": [
                    10.42156935470766,
                    1.39832570250485,
                    0.2026107498527688
                ],
                "label": "Nb",
                "properties": {}
            },
            {
                "species": [
                    {
                        "element": "Nb",
                        "occu": 1
                    }
                ],
                "abc": [
                    0.83314585,
                    0.33902863,
                    0.53575802
                ],
                "xyz": [
                    14.756609145292341,
                    -1.3983257025048503,
                    3.0356919698527682
                ],
                "label": "Nb",
                "properties": {}
            },
            {
                "species": [
                    {
                        "element": "Nb",
                        "occu": 1
                    }
                ],
                "abc": [
                    0.33902863,
                    0.83314585,
                    0.03575802
                ],
                "xyz": [
                    14.756609145292341,
                    1.3983257025048503,
                    0.2026107498527688
                ],
                "label": "Nb",
                "properties": {}
            },
            {
                "species": [
                    {
                        "element": "Bi",
                        "occu": 1
                    }
                ],
                "abc": [
                    0.51162935,
                    0.08550256,
                    0.94064669
                ],
                "xyz": [
                    7.517346909012968,
                    -1.2059163673407027,
                    5.3298569441883235
                ],
                "label": "Bi",
                "properties": {}
            },
            {
                "species": [
                    {
                        "element": "Bi",
                        "occu": 1
                    }
                ],
                "abc": [
                    0.08550256,
                    0.51162935,
                    0.44064669
                ],
                "xyz": [
                    7.517346909012968,
                    1.2059163673407027,
                    2.4967757241883235
                ],
                "label": "Bi",
                "properties": {}
            },
            {
                "species": [
                    {
                        "element": "Bi",
                        "occu": 1
                    }
                ],
                "abc": [
                    0.48837065,
                    0.91449744,
                    0.44064669
                ],
                "xyz": [
                    17.660831590987033,
                    1.2059163673407027,
                    2.4967757241883235
                ],
                "label": "Bi",
                "properties": {}
            },
            {
                "species": [
                    {
                        "element": "Bi",
                        "occu": 1
                    }
                ],
                "abc": [
                    0.91449744,
                    0.48837065,
                    0.94064669
                ],
                "xyz": [
                    17.660831590987033,
                    -1.2059163673407027,
                    5.3298569441883235
                ],
                "label": "Bi",
                "properties": {}
            },
            {
                "species": [
                    {
                        "element": "O",
                        "occu": 1
                    }
                ],
                "abc": [
                    0.26554044,
                    0.23022314,
                    0.22997748
                ],
                "xyz": [
                    6.241211955519515,
                    -0.09994609848463598,
                    1.3030897592218513
                ],
                "label": "O",
                "properties": {}
            },
            {
                "species": [
                    {
                        "element": "O",
                        "occu": 1
                    }
                ],
                "abc": [
                    0.57185849,
                    0.57482714,
                    0.79312516
                ],
                "xyz": [
                    14.435727737762477,
                    0.008401123111517972,
                    4.4939759918109905
                ],
                "label": "O",
                "properties": {}
            },
            {
                "species": [
                    {
                        "element": "O",
                        "occu": 1
                    }
                ],
                "abc": [
                    0.84532569,
                    0.47587198,
                    0.55562439
                ],
                "xyz": [
                    16.63267538452205,
                    -1.045534536478557,
                    3.1482580493659116
                ],
                "label": "O",
                "properties": {}
            },
            {
                "species": [
                    {
                        "element": "O",
                        "occu": 1
                    }
                ],
                "abc": [
                    0.57482714,
                    0.57185849,
                    0.29312516
                ],
                "xyz": [
                    14.435727737762477,
                    -0.008401123111517972,
                    1.6608947718109903
                ],
                "label": "O",
                "properties": {}
            },
            {
                "species": [
                    {
                        "element": "O",
                        "occu": 1
                    }
                ],
                "abc": [
                    0.910251,
                    0.91949748,
                    0.79673005
                ],
                "xyz": [
                    23.034866919771844,
                    0.026167051295433286,
                    4.514401884129322
                ],
                "label": "O",
                "properties": {}
            },
            {
                "species": [
                    {
                        "element": "O",
                        "occu": 1
                    }
                ],
                "abc": [
                    0.08050252,
                    0.089749,
                    0.79673005
                ],
                "xyz": [
                    2.14331158022816,
                    0.02616705129543362,
                    4.514401884129322
                ],
                "label": "O",
                "properties": {}
            },
            {
                "species": [
                    {
                        "element": "O",
                        "occu": 1
                    }
                ],
                "abc": [
                    0.47587198,
                    0.84532569,
                    0.05562439
                ],
                "xyz": [
                    16.63267538452205,
                    1.045534536478557,
                    0.3151768293659116
                ],
                "label": "O",
                "properties": {}
            },
            {
                "species": [
                    {
                        "element": "O",
                        "occu": 1
                    }
                ],
                "abc": [
                    0.15467431,
                    0.52412802,
                    0.05562439
                ],
                "xyz": [
                    8.545503115477954,
                    1.0455345364785573,
                    0.3151768293659116
                ],
                "label": "O",
                "properties": {}
            },
            {
                "species": [
                    {
                        "element": "O",
                        "occu": 1
                    }
                ],
                "abc": [
                    0.91949748,
                    0.910251,
                    0.29673005
                ],
                "xyz": [
                    23.034866919771844,
                    -0.026167051295433286,
                    1.6813206641293221
                ],
                "label": "O",
                "properties": {}
            },
            {
                "species": [
                    {
                        "element": "O",
                        "occu": 1
                    }
                ],
                "abc": [
                    0.089749,
                    0.08050252,
                    0.29673005
                ],
                "xyz": [
                    2.14331158022816,
                    -0.02616705129543362,
                    1.6813206641293221
                ],
                "label": "O",
                "properties": {}
            },
            {
                "species": [
                    {
                        "element": "O",
                        "occu": 1
                    }
                ],
                "abc": [
                    0.42517286,
                    0.42814151,
                    0.79312516
                ],
                "xyz": [
                    10.742450762237524,
                    0.008401123111517972,
                    4.4939759918109905
                ],
                "label": "O",
                "properties": {}
            },
            {
                "species": [
                    {
                        "element": "O",
                        "occu": 1
                    }
                ],
                "abc": [
                    0.42814151,
                    0.42517286,
                    0.29312516
                ],
                "xyz": [
                    10.742450762237524,
                    -0.008401123111517972,
                    1.6608947718109903
                ],
                "label": "O",
                "properties": {}
            },
            {
                "species": [
                    {
                        "element": "O",
                        "occu": 1
                    }
                ],
                "abc": [
                    0.73445956,
                    0.76977686,
                    0.72997748
                ],
                "xyz": [
                    18.936966544480484,
                    0.09994609848463609,
                    4.136170979221851
                ],
                "label": "O",
                "properties": {}
            },
            {
                "species": [
                    {
                        "element": "O",
                        "occu": 1
                    }
                ],
                "abc": [
                    0.76977686,
                    0.73445956,
                    0.22997748
                ],
                "xyz": [
                    18.936966544480484,
                    -0.09994609848463609,
                    1.3030897592218513
                ],
                "label": "O",
                "properties": {}
            },
            {
                "species": [
                    {
                        "element": "O",
                        "occu": 1
                    }
                ],
                "abc": [
                    0.23022314,
                    0.26554044,
                    0.72997748
                ],
                "xyz": [
                    6.241211955519515,
                    0.09994609848463598,
                    4.136170979221851
                ],
                "label": "O",
                "properties": {}
            },
            {
                "species": [
                    {
                        "element": "O",
                        "occu": 1
                    }
                ],
                "abc": [
                    0.52412802,
                    0.15467431,
                    0.55562439
                ],
                "xyz": [
                    8.545503115477954,
                    -1.0455345364785573,
                    3.1482580493659116
                ],
                "label": "O",
                "properties": {}
            },
            {
                "species": [
                    {
                        "element": "O",
                        "occu": 1
                    }
                ],
                "abc": [
                    0.22824717,
                    0.77175283,
                    0.04479315
                ],
                "xyz": [
                    12.589089249999999,
                    1.538092385921831,
                    0.253805264099286
                ],
                "label": "O",
                "properties": {}
            },
            {
                "species": [
                    {
                        "element": "O",
                        "occu": 1
                    }
                ],
                "abc": [
                    0.77175283,
                    0.22824717,
                    0.54479315
                ],
                "xyz": [
                    12.589089249999999,
                    -1.538092385921831,
                    3.086886484099286
                ],
                "label": "O",
                "properties": {}
            }
        ]
    },
    "spacegroup": {
        "source": "spglib",
        "symbol": "Cmc2_1",
        "number": 36,
        "point_group": "mm2",
        "crystal_system": "orthorhombic",
        "hall": "C 2c -2"
    },
    "dielectric": {
        "epsilon_ionic": [
            [
                72.43656793,
                -0.0,
                8.422e-05
            ],
            [
                -0.0,
                52.85342427,
                0.00013123
            ],
            [
                8.422e-05,
                0.00013123,
                52.31212321
            ]
        ],
        "epsilon_ionic_avg": 59.20070513666669,
        "epsilon_ionic_eig": [
            72.43656793035248,
            52.31212317783292,
            52.85342430181466
        ],
        "epsilon_electronic": [
            [
                5.98465915,
                0.0,
                0.0
            ],
            [
                0.0,
                6.31414889,
                0.0
            ],
            [
                0.0,
                0.0,
                6.30023409
            ]
        ],
        "epsilon_electronic_avg": 6.19968071,
        "epsilon_electronic_eig": [
            5.98465915,
            6.31414889,
            6.30023409
        ]
    },
    "phonon": {
        "lowest_freq": -0.11631701274312235,
        "frequency": [
            -0.11631701274312235,
            -0.04368507335824457,
            -0.018217315769766505,
            1.2752435404871076,
            1.4613484924166442,
            1.6492850652215723,
            1.6554500110358317,
            2.1411114276242014,
            2.197507428237058,
            2.3896673016211554,
            2.4821595150564493,
            2.942025192807947,
            2.982721866117363,
            3.1394085738309316,
            3.3750684853642476,
            3.4335696897903762,
            3.604451768256763,
            3.6238398590955128,
            3.726567875304484,
            3.8412910607711264,
            4.106250171213912,
            4.199838614295424,
            4.304775825056555,
            4.403637602581028,
            4.474144457567239,
            4.5641358387977515,
            4.77614805762298,
            4.854287312439551,
            5.0060865831302115,
            5.149025793599902,
            5.733752265717822,
            6.048114847709656,
            6.186271019184384,
            6.392288063744717,
            6.439094123310457,
            6.51516083696569,
            6.556656155328783,
            6.727047198938004,
            7.045428248067239,
            7.203203476561116,
            7.265861029654587,
            7.341876391452258,
            7.600249914297661,
            7.691776582065726,
            7.854801288135721,
            8.50972016875224,
            8.805570405984842,
            8.907915771044165,
            8.92495268136427,
            9.450807015759958,
            9.549928540167373,
            10.234161625869637,
            10.254207097970621,
            10.520274194447904,
            10.670432273634681,
            10.8587244203217,
            10.882141921214876,
            10.895704215528573,
            11.717772493641364,
            11.728121071374153,
            12.065587764573339,
            12.123721516333054,
            12.213458611252936,
            12.503377214102931,
            12.652990509474309,
            12.999661070295641,
            13.131196858719388,
            13.57719579774592,
            13.934259160052516,
            15.080928069932675,
            16.01652374759809,
            16.19217267940236,
            16.457929778727753,
            16.47730259152378,
            16.767153757339038,
            17.162304299709614,
            17.420098277502245,
            17.52203098276916,
            18.436092889423836,
            18.467623688963826,
            20.934955197555016,
            22.70668828425338,
            25.747894053834617,
            25.849977426603502
        ]
    },
    "born_effective_charge": {
        "avg_abs_trace": 3.9942344047619045,
        "tensors": [
            [
                [
                    2.62247,
                    -1e-05,
                    -1e-05
                ],
                [
                    0.0,
                    2.78005,
                    0.03487
                ],
                [
                    -0.0,
                    -0.07282,
                    2.73141
                ]
            ],
            [
                [
                    2.62247,
                    1e-05,
                    -1e-05
                ],
                [
                    0.0,
                    2.78009,
                    -0.03445
                ],
                [
                    -0.0,
                    0.07282,
                    2.73141
                ]
            ],
            [
                [
                    7.64659,
                    -0.38332,
                    -0.31438
                ],
                [
                    -0.39884,
                    8.44334,
                    0.03613
                ],
                [
                    -0.23048,
                    0.1511,
                    8.19993
                ]
            ],
            [
                [
                    7.64659,
                    0.38332,
                    -0.31438
                ],
                [
                    0.39886,
                    8.44336,
                    -0.03624
                ],
                [
                    -0.23048,
                    -0.1511,
                    8.19993
                ]
            ],
            [
                [
                    7.64649,
                    0.38333,
                    0.31437
                ],
                [
                    0.39884,
                    8.44334,
                    0.03613
                ],
                [
                    0.23048,
                    0.1511,
                    8.19993
                ]
            ],
            [
                [
                    7.64649,
                    -0.38333,
                    0.31437
                ],
                [
                    -0.39886,
                    8.44336,
                    -0.03624
                ],
                [
                    0.23048,
                    -0.1511,
                    8.19993
                ]
            ],
            [
                [
                    4.00981,
                    0.93047,
                    -0.59498
                ],
                [
                    0.48124,
                    4.66496,
                    0.27902
                ],
                [
                    -0.04094,
                    0.51391,
                    4.90792
                ]
            ],
            [
                [
                    4.00981,
                    -0.93047,
                    -0.59498
                ],
                [
                    -0.48124,
                    4.66497,
                    -0.27901
                ],
                [
                    -0.04094,
                    -0.51391,
                    4.90792
                ]
            ],
            [
                [
                    4.00976,
                    0.93053,
                    0.59505
                ],
                [
                    0.48124,
                    4.66497,
                    -0.27901
                ],
                [
                    0.04094,
                    -0.51391,
                    4.90792
                ]
            ],
            [
                [
                    4.00976,
                    -0.93053,
                    0.59505
                ],
                [
                    -0.48124,
                    4.66496,
                    0.27902
                ],
                [
                    0.04094,
                    0.51391,
                    4.90792
                ]
            ],
            [
                [
                    -2.32899,
                    -0.33312,
                    0.38546
                ],
                [
                    -0.63851,
                    -3.00566,
                    0.25924
                ],
                [
                    0.28424,
                    -0.13996,
                    -3.01186
                ]
            ],
            [
                [
                    -1.75561,
                    -0.10784,
                    -0.1157
                ],
                [
                    -0.10161,
                    -3.89183,
                    -2.08489
                ],
                [
                    -0.1006,
                    -2.21554,
                    -3.985
                ]
            ],
            [
                [
                    -4.66561,
                    -1.1491,
                    -0.85043
                ],
                [
                    -1.0011,
                    -2.14428,
                    0.22735
                ],
                [
                    -0.37258,
                    0.36471,
                    -2.27671
                ]
            ],
            [
                [
                    -1.75561,
                    0.10784,
                    -0.1157
                ],
                [
                    0.10162,
                    -3.89178,
                    2.0849
                ],
                [
                    -0.1006,
                    2.21554,
                    -3.985
                ]
            ],
            [
                [
                    -1.61196,
                    -0.02877,
                    0.07262
                ],
                [
                    0.02977,
                    -4.32742,
                    2.51406
                ],
                [
                    -0.07271,
                    2.49213,
                    -4.08276
                ]
            ],
            [
                [
                    -1.61195,
                    0.02879,
                    -0.07264
                ],
                [
                    -0.02977,
                    -4.32742,
                    2.51406
                ],
                [
                    0.07271,
                    2.49213,
                    -4.08276
                ]
            ],
            [
                [
                    -4.66561,
                    1.1491,
                    -0.85043
                ],
                [
                    1.00111,
                    -2.14426,
                    -0.2273
                ],
                [
                    -0.37258,
                    -0.36471,
                    -2.27671
                ]
            ],
            [
                [
                    -4.66566,
                    -1.14913,
                    0.85043
                ],
                [
                    -1.00111,
                    -2.14426,
                    -0.2273
                ],
                [
                    0.37258,
                    -0.36471,
                    -2.27671
                ]
            ],
            [
                [
                    -1.61196,
                    0.02877,
                    0.07262
                ],
                [
                    -0.02978,
                    -4.32744,
                    -2.51405
                ],
                [
                    -0.07271,
                    -2.49213,
                    -4.08276
                ]
            ],
            [
                [
                    -1.61195,
                    -0.02879,
                    -0.07264
                ],
                [
                    0.02978,
                    -4.32744,
                    -2.51405
                ],
                [
                    0.07271,
                    -2.49213,
                    -4.08276
                ]
            ],
            [
                [
                    -1.75561,
                    0.10783,
                    0.11572
                ],
                [
                    0.10161,
                    -3.89183,
                    -2.08489
                ],
                [
                    0.1006,
                    -2.21554,
                    -3.985
                ]
            ],
            [
                [
                    -1.75561,
                    -0.10783,
                    0.11572
                ],
                [
                    -0.10162,
                    -3.89178,
                    2.0849
                ],
                [
                    0.1006,
                    2.21554,
                    -3.985
                ]
            ],
            [
                [
                    -2.32895,
                    -0.33308,
                    -0.38552
                ],
                [
                    -0.63839,
                    -3.00569,
                    -0.25923
                ],
                [
                    -0.28424,
                    0.13996,
                    -3.01186
                ]
            ],
            [
                [
                    -2.32895,
                    0.33308,
                    -0.38552
                ],
                [
                    0.63851,
                    -3.00566,
                    0.25924
                ],
                [
                    -0.28424,
                    -0.13996,
                    -3.01186
                ]
            ],
            [
                [
                    -2.32899,
                    0.33312,
                    0.38546
                ],
                [
                    0.63839,
                    -3.00569,
                    -0.25923
                ],
                [
                    0.28424,
                    0.13996,
                    -3.01186
                ]
            ],
            [
                [
                    -4.66566,
                    1.14913,
                    0.85043
                ],
                [
                    1.0011,
                    -2.14428,
                    0.22735
                ],
                [
                    0.37258,
                    0.36471,
                    -2.27671
                ]
            ],
            [
                [
                    -5.21077,
                    1e-05,
                    1e-05
                ],
                [
                    0.0,
                    -2.25836,
                    -0.01666
                ],
                [
                    -0.0,
                    -0.0019,
                    -2.23445
                ]
            ],
            [
                [
                    -5.21077,
                    -1e-05,
                    1e-05
                ],
                [
                    0.0,
                    -2.25831,
                    0.01626
                ],
                [
                    -0.0,
                    0.0019,
                    -2.23445
                ]
            ]
        ]
    },
    "band_gap": 1.9302999999999995,
    "is_direct": true,
    "formula": "BaNb2Bi2O9"
}