{
    "mp_id": "mp-562854",
    "nelements": 4,
    "nsites": 22,
    "elements": [
        "Bi",
        "Cs",
        "Nb",
        "O"
    ],
    "structure": {
        "@module": "pymatgen.core.structure",
        "@class": "Structure",
        "charge": null,
        "lattice": {
            "matrix": [
                [
                    11.38406852,
                    0.0,
                    0.0
                ],
                [
                    0.0,
                    5.45050266,
                    0.0
                ],
                [
                    0.0,
                    0.0,
                    5.5457189
                ]
            ],
            "a": 11.38406852,
            "b": 5.45050266,
            "c": 5.5457189,
            "alpha": 90.0,
            "beta": 90.0,
            "gamma": 90.0,
            "volume": 344.10573388425166
        },
        "sites": [
            {
                "species": [
                    {
                        "element": "Cs",
                        "occu": 1
                    }
                ],
                "abc": [
                    0.5,
                    0.25892137,
                    0.24308487
                ],
                "xyz": [
                    5.69203426,
                    1.4112516159158441,
                    1.348080357863043
                ],
                "label": "Cs",
                "properties": {}
            },
            {
                "species": [
                    {
                        "element": "Cs",
                        "occu": 1
                    }
                ],
                "abc": [
                    0.5,
                    0.74107863,
                    0.74308487
                ],
                "xyz": [
                    5.69203426,
                    4.039251044084155,
                    4.120939807863043
                ],
                "label": "Cs",
                "properties": {}
            },
            {
                "species": [
                    {
                        "element": "Nb",
                        "occu": 1
                    }
                ],
                "abc": [
                    0.7962021,
                    0.24706556,
                    0.7574534
                ],
                "xyz": [
                    9.064019262167893,
                    1.3466314919743896,
                    4.20062363624926
                ],
                "label": "Nb",
                "properties": {}
            },
            {
                "species": [
                    {
                        "element": "Nb",
                        "occu": 1
                    }
                ],
                "abc": [
                    0.2037979,
                    0.75293444,
                    0.2574534
                ],
                "xyz": [
                    2.320049257832108,
                    4.10387116802561,
                    1.42776418624926
                ],
                "label": "Nb",
                "properties": {}
            },
            {
                "species": [
                    {
                        "element": "Nb",
                        "occu": 1
                    }
                ],
                "abc": [
                    0.7962021,
                    0.75293444,
                    0.2574534
                ],
                "xyz": [
                    9.064019262167893,
                    4.10387116802561,
                    1.42776418624926
                ],
                "label": "Nb",
                "properties": {}
            },
            {
                "species": [
                    {
                        "element": "Nb",
                        "occu": 1
                    }
                ],
                "abc": [
                    0.2037979,
                    0.24706556,
                    0.7574534
                ],
                "xyz": [
                    2.320049257832108,
                    1.3466314919743896,
                    4.20062363624926
                ],
                "label": "Nb",
                "properties": {}
            },
            {
                "species": [
                    {
                        "element": "Bi",
                        "occu": 1
                    }
                ],
                "abc": [
                    0.0,
                    0.26556767,
                    0.19511211
                ],
                "xyz": [
                    0.0,
                    1.447477291745002,
                    1.082036916045879
                ],
                "label": "Bi",
                "properties": {}
            },
            {
                "species": [
                    {
                        "element": "Bi",
                        "occu": 1
                    }
                ],
                "abc": [
                    0.0,
                    0.73443233,
                    0.69511211
                ],
                "xyz": [
                    0.0,
                    4.003025368254997,
                    3.8548963660458786
                ],
                "label": "Bi",
                "properties": {}
            },
            {
                "species": [
                    {
                        "element": "O",
                        "occu": 1
                    }
                ],
                "abc": [
                    0.81269348,
                    0.43708583,
                    0.07864027
                ],
                "xyz": [
                    9.25175826207725,
                    2.382337479063308,
                    0.43611683164010295
                ],
                "label": "O",
                "properties": {}
            },
            {
                "species": [
                    {
                        "element": "O",
                        "occu": 1
                    }
                ],
                "abc": [
                    0.8497727,
                    0.96123239,
                    0.97925852
                ],
                "xyz": [
                    9.673870643225404,
                    5.239199698573158,
                    5.430692482350028
                ],
                "label": "O",
                "properties": {}
            },
            {
                "species": [
                    {
                        "element": "O",
                        "occu": 1
                    }
                ],
                "abc": [
                    0.36113159,
                    0.78723836,
                    0.24731743
                ],
                "xyz": [
                    4.111146765296547,
                    4.290844775234038,
                    1.371552945850427
                ],
                "label": "O",
                "properties": {}
            },
            {
                "species": [
                    {
                        "element": "O",
                        "occu": 1
                    }
                ],
                "abc": [
                    0.1502273,
                    0.96123239,
                    0.97925852
                ],
                "xyz": [
                    1.710197876774596,
                    5.239199698573158,
                    5.430692482350028
                ],
                "label": "O",
                "properties": {}
            },
            {
                "species": [
                    {
                        "element": "O",
                        "occu": 1
                    }
                ],
                "abc": [
                    0.1502273,
                    0.03876761,
                    0.47925852
                ],
                "xyz": [
                    1.710197876774596,
                    0.2113029614268426,
                    2.657833032350028
                ],
                "label": "O",
                "properties": {}
            },
            {
                "species": [
                    {
                        "element": "O",
                        "occu": 1
                    }
                ],
                "abc": [
                    0.0,
                    0.6705846,
                    0.29346478
                ],
                "xyz": [
                    0.0,
                    3.6550231460550355,
                    1.6274731769303419
                ],
                "label": "O",
                "properties": {}
            },
            {
                "species": [
                    {
                        "element": "O",
                        "occu": 1
                    }
                ],
                "abc": [
                    0.63886841,
                    0.21276164,
                    0.74731743
                ],
                "xyz": [
                    7.272921754703454,
                    1.1596578847659624,
                    4.144412395850426
                ],
                "label": "O",
                "properties": {}
            },
            {
                "species": [
                    {
                        "element": "O",
                        "occu": 1
                    }
                ],
                "abc": [
                    0.81269348,
                    0.56291417,
                    0.57864027
                ],
                "xyz": [
                    9.25175826207725,
                    3.068165180936692,
                    3.2089762816401026
                ],
                "label": "O",
                "properties": {}
            },
            {
                "species": [
                    {
                        "element": "O",
                        "occu": 1
                    }
                ],
                "abc": [
                    0.0,
                    0.3294154,
                    0.79346478
                ],
                "xyz": [
                    0.0,
                    1.795479513944964,
                    4.400332626930342
                ],
                "label": "O",
                "properties": {}
            },
            {
                "species": [
                    {
                        "element": "O",
                        "occu": 1
                    }
                ],
                "abc": [
                    0.18730652,
                    0.56291417,
                    0.57864027
                ],
                "xyz": [
                    2.13231025792275,
                    3.068165180936692,
                    3.2089762816401026
                ],
                "label": "O",
                "properties": {}
            },
            {
                "species": [
                    {
                        "element": "O",
                        "occu": 1
                    }
                ],
                "abc": [
                    0.63886841,
                    0.78723836,
                    0.24731743
                ],
                "xyz": [
                    7.272921754703454,
                    4.290844775234038,
                    1.371552945850427
                ],
                "label": "O",
                "properties": {}
            },
            {
                "species": [
                    {
                        "element": "O",
                        "occu": 1
                    }
                ],
                "abc": [
                    0.36113159,
                    0.21276164,
                    0.74731743
                ],
                "xyz": [
                    4.111146765296547,
                    1.1596578847659624,
                    4.144412395850426
                ],
                "label": "O",
                "properties": {}
            },
            {
                "species": [
                    {
                        "element": "O",
                        "occu": 1
                    }
                ],
                "abc": [
                    0.18730652,
                    0.43708583,
                    0.07864027
                ],
                "xyz": [
                    2.13231025792275,
                    2.382337479063308,
                    0.43611683164010295
                ],
                "label": "O",
                "properties": {}
            },
            {
                "species": [
                    {
                        "element": "O",
                        "occu": 1
                    }
                ],
                "abc": [
                    0.8497727,
                    0.03876761,
                    0.47925852
                ],
                "xyz": [
                    9.673870643225404,
                    0.2113029614268426,
                    2.657833032350028
                ],
                "label": "O",
                "properties": {}
            }
        ]
    },
    "spacegroup": {
        "source": "spglib",
        "symbol": "Pmc2_1",
        "number": 26,
        "point_group": "mm2",
        "crystal_system": "orthorhombic",
        "hall": "P 2c -2"
    },
    "dielectric": {
        "epsilon_ionic": [
            [
                9.94781192,
                0.0,
                -2.139e-05
            ],
            [
                0.0,
                24.86388646,
                -1.38e-06
            ],
            [
                -2.139e-05,
                -1.38e-06,
                20.42880201
            ]
        ],
        "epsilon_ionic_avg": 18.41350013,
        "epsilon_ionic_eig": [
            9.947811919956344,
            20.428802010043224,
            24.86388646000043
        ],
        "epsilon_electronic": [
            [
                4.40808592,
                0.0,
                0.0
            ],
            [
                0.0,
                5.25709579,
                0.0
            ],
            [
                0.0,
                0.0,
                5.150444
            ]
        ],
        "epsilon_electronic_avg": 4.938541903333333,
        "epsilon_electronic_eig": [
            4.40808592,
            5.25709579,
            5.150444
        ]
    },
    "phonon": {
        "lowest_freq": -0.11183660113681997,
        "frequency": [
            -0.11183660113681997,
            -0.057350442275009565,
            -0.05605321358630861,
            1.235341782059221,
            1.2576666944773944,
            1.7184197381553306,
            1.823362136524147,
            2.062148381728766,
            2.183313728184861,
            2.4648264276650607,
            2.533503089791805,
            2.7455752337254578,
            2.779205025196377,
            2.883340394806926,
            3.163002587391345,
            3.2625137943799998,
            3.978316894886579,
            4.022048574505041,
            4.287003522377965,
            4.398880409916558,
            4.622437001933497,
            4.627588290004514,
            4.72289746846276,
            5.067050303521659,
            5.450247898913579,
            5.839000626271254,
            5.891002874758166,
            6.094419248643025,
            6.144388567717067,
            6.254335358080537,
            6.74564679246472,
            6.907132568863593,
            7.043762224609908,
            7.101423449889182,
            7.903777087666297,
            8.635723599571104,
            8.909475469709816,
            9.122803463098695,
            9.864248600644778,
            10.084539357116396,
            10.087079012339366,
            10.183549422472119,
            10.445442656944286,
            10.614744918576033,
            10.724560039692024,
            10.816336524907065,
            11.02340188001079,
            11.888244208321108,
            12.3037651855916,
            12.307066382556995,
            12.560065439183328,
            13.385606918496363,
            13.489089938716656,
            14.567988988522693,
            16.465752380624078,
            16.660930774384493,
            16.700816164498406,
            16.82059373076496,
            17.45442380903923,
            17.58658460781528,
            22.689361660551107,
            23.17033360338803,
            24.788551966523276,
            25.1469098705133,
            25.651742749020293,
            27.10958639086018
        ]
    },
    "born_effective_charge": {
        "avg_abs_trace": 3.2664957575757567,
        "tensors": [
            [
                [
                    2.07548,
                    -0.0,
                    1e-05
                ],
                [
                    -0.0,
                    1.4084,
                    -0.01617
                ],
                [
                    0.0,
                    -0.00938,
                    1.33167
                ]
            ],
            [
                [
                    2.07548,
                    0.0,
                    1e-05
                ],
                [
                    -0.0,
                    1.4084,
                    0.01617
                ],
                [
                    0.0,
                    0.00938,
                    1.33167
                ]
            ],
            [
                [
                    4.51683,
                    0.25342,
                    -0.11104
                ],
                [
                    -0.15627,
                    6.87566,
                    0.65988
                ],
                [
                    0.06107,
                    -0.33732,
                    6.71339
                ]
            ],
            [
                [
                    4.51661,
                    0.25342,
                    0.11096
                ],
                [
                    -0.15628,
                    6.87564,
                    -0.65988
                ],
                [
                    -0.06107,
                    0.33732,
                    6.71339
                ]
            ],
            [
                [
                    4.51683,
                    -0.25342,
                    -0.11104
                ],
                [
                    0.15628,
                    6.87564,
                    -0.65988
                ],
                [
                    0.06107,
                    0.33732,
                    6.71339
                ]
            ],
            [
                [
                    4.51661,
                    -0.25342,
                    0.11096
                ],
                [
                    0.15627,
                    6.87566,
                    0.65988
                ],
                [
                    -0.06107,
                    -0.33732,
                    6.71339
                ]
            ],
            [
                [
                    3.51222,
                    -0.0,
                    1e-05
                ],
                [
                    -0.0,
                    4.73222,
                    -0.53038
                ],
                [
                    0.0,
                    -0.06856,
                    4.62567
                ]
            ],
            [
                [
                    3.51222,
                    0.0,
                    1e-05
                ],
                [
                    -0.0,
                    4.73222,
                    0.53038
                ],
                [
                    0.0,
                    0.06856,
                    4.62567
                ]
            ],
            [
                [
                    -1.39268,
                    0.48913,
                    -0.20285
                ],
                [
                    0.42625,
                    -3.65101,
                    -1.66161
                ],
                [
                    -0.28183,
                    -1.81287,
                    -3.34565
                ]
            ],
            [
                [
                    -1.34058,
                    -0.02964,
                    0.29367
                ],
                [
                    -0.15922,
                    -3.77118,
                    1.49641
                ],
                [
                    0.41555,
                    1.33919,
                    -3.772
                ]
            ],
            [
                [
                    -3.5101,
                    -0.26042,
                    0.02558
                ],
                [
                    -0.32327,
                    -1.15698,
                    0.0448
                ],
                [
                    0.02128,
                    -0.01283,
                    -1.10784
                ]
            ],
            [
                [
                    -1.34058,
                    0.02965,
                    -0.29364
                ],
                [
                    0.15922,
                    -3.77118,
                    1.49641
                ],
                [
                    -0.41555,
                    1.33919,
                    -3.772
                ]
            ],
            [
                [
                    -1.34058,
                    -0.02965,
                    -0.29364
                ],
                [
                    -0.15922,
                    -3.77118,
                    -1.49641
                ],
                [
                    -0.41555,
                    -1.33919,
                    -3.772
                ]
            ],
            [
                [
                    -2.13443,
                    1e-05,
                    -2e-05
                ],
                [
                    -0.0,
                    -2.73358,
                    -0.55018
                ],
                [
                    0.0,
                    -0.94401,
                    -2.93313
                ]
            ],
            [
                [
                    -3.51008,
                    -0.26042,
                    -0.02555
                ],
                [
                    -0.32327,
                    -1.15698,
                    -0.0448
                ],
                [
                    -0.02128,
                    0.01283,
                    -1.10784
                ]
            ],
            [
                [
                    -1.39268,
                    -0.48913,
                    -0.20285
                ],
                [
                    -0.42625,
                    -3.65101,
                    1.66161
                ],
                [
                    -0.28183,
                    1.81287,
                    -3.34565
                ]
            ],
            [
                [
                    -2.13443,
                    -1e-05,
                    -2e-05
                ],
                [
                    -0.0,
                    -2.73358,
                    0.55018
                ],
                [
                    0.0,
                    0.94401,
                    -2.93313
                ]
            ],
            [
                [
                    -1.3927,
                    0.48912,
                    0.20287
                ],
                [
                    0.42625,
                    -3.65101,
                    1.66161
                ],
                [
                    0.28183,
                    1.81287,
                    -3.34565
                ]
            ],
            [
                [
                    -3.51008,
                    0.26042,
                    -0.02555
                ],
                [
                    0.32327,
                    -1.15698,
                    0.0448
                ],
                [
                    -0.02128,
                    -0.01283,
                    -1.10784
                ]
            ],
            [
                [
                    -3.5101,
                    0.26042,
                    0.02558
                ],
                [
                    0.32327,
                    -1.15698,
                    -0.0448
                ],
                [
                    0.02128,
                    0.01283,
                    -1.10784
                ]
            ],
            [
                [
                    -1.3927,
                    -0.48912,
                    0.20287
                ],
                [
                    -0.42625,
                    -3.65101,
                    -1.66161
                ],
                [
                    0.28183,
                    -1.81287,
                    -3.34565
                ]
            ],
            [
                [
                    -1.34058,
                    0.02964,
                    0.29367
                ],
                [
                    0.15922,
                    -3.77118,
                    -1.49641
                ],
                [
                    0.41555,
                    -1.33919,
                    -3.772
                ]
            ]
        ]
    },
    "band_gap": 2.6859,
    "is_direct": false,
    "formula": "CsNb2BiO7"
}