{
    "mp_id": "mp-560791",
    "nelements": 4,
    "nsites": 12,
    "elements": [
        "Cs",
        "Na",
        "O",
        "Ti"
    ],
    "structure": {
        "@module": "pymatgen.core.structure",
        "@class": "Structure",
        "charge": null,
        "lattice": {
            "matrix": [
                [
                    2.99383486,
                    -5.56661048,
                    0.0
                ],
                [
                    2.99383486,
                    5.56661048,
                    0.0
                ],
                [
                    0.0,
                    0.0,
                    5.67108058
                ]
            ],
            "a": 6.320617011415662,
            "b": 6.320617011415662,
            "c": 5.67108058,
            "alpha": 90.0,
            "beta": 90.0,
            "gamma": 123.45548805954405,
            "volume": 189.02292866913064
        },
        "sites": [
            {
                "species": [
                    {
                        "element": "Cs",
                        "occu": 1
                    }
                ],
                "abc": [
                    0.73225605,
                    0.26774395,
                    0.25
                ],
                "xyz": [
                    2.9938348600000007,
                    -2.585757923946808,
                    1.417770145
                ],
                "label": "Cs",
                "properties": {}
            },
            {
                "species": [
                    {
                        "element": "Cs",
                        "occu": 1
                    }
                ],
                "abc": [
                    0.26774395,
                    0.73225605,
                    0.75
                ],
                "xyz": [
                    2.9938348600000007,
                    2.585757923946808,
                    4.2533104349999995
                ],
                "label": "Cs",
                "properties": {}
            },
            {
                "species": [
                    {
                        "element": "Na",
                        "occu": 1
                    }
                ],
                "abc": [
                    0.57405275,
                    0.42594725,
                    0.75
                ],
                "xyz": [
                    2.99383486,
                    -0.8244456284456403,
                    4.2533104349999995
                ],
                "label": "Na",
                "properties": {}
            },
            {
                "species": [
                    {
                        "element": "Na",
                        "occu": 1
                    }
                ],
                "abc": [
                    0.42594725,
                    0.57405275,
                    0.25
                ],
                "xyz": [
                    2.99383486,
                    0.8244456284456403,
                    1.417770145
                ],
                "label": "Na",
                "properties": {}
            },
            {
                "species": [
                    {
                        "element": "Ti",
                        "occu": 1
                    }
                ],
                "abc": [
                    0.95138488,
                    0.04861512,
                    0.75
                ],
                "xyz": [
                    2.99383486,
                    -5.025367607043084,
                    4.2533104349999995
                ],
                "label": "Ti",
                "properties": {}
            },
            {
                "species": [
                    {
                        "element": "Ti",
                        "occu": 1
                    }
                ],
                "abc": [
                    0.04861512,
                    0.95138488,
                    0.25
                ],
                "xyz": [
                    2.99383486,
                    5.025367607043084,
                    1.417770145
                ],
                "label": "Ti",
                "properties": {}
            },
            {
                "species": [
                    {
                        "element": "O",
                        "occu": 1
                    }
                ],
                "abc": [
                    0.78936909,
                    0.21063091,
                    0.75
                ],
                "xyz": [
                    2.99383486,
                    -3.2216100179641263,
                    4.2533104349999995
                ],
                "label": "O",
                "properties": {}
            },
            {
                "species": [
                    {
                        "element": "O",
                        "occu": 1
                    }
                ],
                "abc": [
                    0.21634595,
                    0.21634595,
                    0.5
                ],
                "xyz": [
                    1.2954080938596342,
                    0.0,
                    2.83554029
                ],
                "label": "O",
                "properties": {}
            },
            {
                "species": [
                    {
                        "element": "O",
                        "occu": 1
                    }
                ],
                "abc": [
                    0.78365405,
                    0.78365405,
                    0.0
                ],
                "xyz": [
                    4.6922616261403665,
                    0.0,
                    0.0
                ],
                "label": "O",
                "properties": {}
            },
            {
                "species": [
                    {
                        "element": "O",
                        "occu": 1
                    }
                ],
                "abc": [
                    0.21634595,
                    0.21634595,
                    0.0
                ],
                "xyz": [
                    1.2954080938596342,
                    0.0,
                    0.0
                ],
                "label": "O",
                "properties": {}
            },
            {
                "species": [
                    {
                        "element": "O",
                        "occu": 1
                    }
                ],
                "abc": [
                    0.78365405,
                    0.78365405,
                    0.5
                ],
                "xyz": [
                    4.6922616261403665,
                    0.0,
                    2.83554029
                ],
                "label": "O",
                "properties": {}
            },
            {
                "species": [
                    {
                        "element": "O",
                        "occu": 1
                    }
                ],
                "abc": [
                    0.21063091,
                    0.78936909,
                    0.25
                ],
                "xyz": [
                    2.99383486,
                    3.2216100179641263,
                    1.417770145
                ],
                "label": "O",
                "properties": {}
            }
        ]
    },
    "spacegroup": {
        "source": "spglib",
        "symbol": "Cmcm",
        "number": 63,
        "point_group": "mmm",
        "crystal_system": "orthorhombic",
        "hall": "-C 2c 2"
    },
    "dielectric": {
        "epsilon_ionic": [
            [
                4.41532724,
                -1e-08,
                3e-08
            ],
            [
                -1e-08,
                5.24819201,
                -2e-08
            ],
            [
                3e-08,
                -2e-08,
                9.79006068
            ]
        ],
        "epsilon_ionic_avg": 6.484526643333335,
        "epsilon_ionic_eig": [
            4.41532724,
            9.790060680000005,
            5.24819201
        ],
        "epsilon_electronic": [
            [
                3.2294426,
                0.0,
                0.0
            ],
            [
                0.0,
                3.59092957,
                -0.0
            ],
            [
                0.0,
                0.0,
                4.20459497
            ]
        ],
        "epsilon_electronic_avg": 3.674989046666667,
        "epsilon_electronic_eig": [
            3.2294426,
            3.59092957,
            4.20459497
        ]
    },
    "phonon": {
        "lowest_freq": -0.07099035273049399,
        "frequency": [
            -0.07099035273049399,
            -0.020772252334559437,
            -0.018038037295343208,
            1.1758452940038087,
            1.9656053432991958,
            2.310671924287942,
            2.894133386251688,
            2.9184171506004217,
            3.0885221462869286,
            4.455498192746112,
            4.807878949327559,
            5.113276265201783,
            5.65324529555037,
            5.820603043040021,
            6.055589910333951,
            6.079799127250785,
            6.335043736590524,
            6.801641195608793,
            6.893959115638206,
            7.570644041048157,
            7.5826479158451985,
            7.593224333600442,
            9.296641439840608,
            9.479976751853334,
            11.146857963338489,
            11.542048889241563,
            12.089464730316301,
            12.28796603315819,
            12.484194213372001,
            14.983303080729955,
            17.26781628676076,
            17.931317455446727,
            18.12571647326682,
            19.03917965881913,
            22.77179788340257,
            23.73082910596018
        ]
    },
    "born_effective_charge": {
        "avg_abs_trace": 2.0906305555555553,
        "tensors": [
            [
                [
                    1.46591,
                    -0.00014,
                    0.0
                ],
                [
                    -0.0,
                    1.15646,
                    0.0
                ],
                [
                    0.0,
                    -0.00042,
                    1.46281
                ]
            ],
            [
                [
                    1.46591,
                    0.00014,
                    0.0
                ],
                [
                    -0.0,
                    1.15635,
                    0.0
                ],
                [
                    0.0,
                    0.00042,
                    1.46281
                ]
            ],
            [
                [
                    1.35114,
                    3e-05,
                    0.0
                ],
                [
                    -0.0,
                    1.23535,
                    0.0
                ],
                [
                    0.0,
                    -3e-05,
                    1.04374
                ]
            ],
            [
                [
                    1.35114,
                    -3e-05,
                    0.0
                ],
                [
                    -0.0,
                    1.23528,
                    0.0
                ],
                [
                    0.0,
                    3e-05,
                    1.04374
                ]
            ],
            [
                [
                    2.36468,
                    -0.00023,
                    0.0
                ],
                [
                    -0.0,
                    3.16953,
                    0.0
                ],
                [
                    0.0,
                    -8e-05,
                    5.56531
                ]
            ],
            [
                [
                    2.36468,
                    0.00023,
                    0.0
                ],
                [
                    -0.0,
                    3.17119,
                    0.0
                ],
                [
                    0.0,
                    8e-05,
                    5.56531
                ]
            ],
            [
                [
                    -1.39021,
                    -5e-05,
                    0.0
                ],
                [
                    -0.0,
                    -2.91599,
                    0.0
                ],
                [
                    0.0,
                    0.00066,
                    -1.55304
                ]
            ],
            [
                [
                    -1.8956,
                    -0.0,
                    0.0
                ],
                [
                    -0.00027,
                    -1.32278,
                    -0.52134
                ],
                [
                    0.00014,
                    -0.86246,
                    -3.25941
                ]
            ],
            [
                [
                    -1.89592,
                    -0.0,
                    0.0
                ],
                [
                    0.00027,
                    -1.32278,
                    0.52134
                ],
                [
                    -0.00014,
                    0.86246,
                    -3.25941
                ]
            ],
            [
                [
                    -1.8956,
                    -0.0,
                    0.0
                ],
                [
                    -0.00027,
                    -1.32278,
                    0.52134
                ],
                [
                    0.00014,
                    0.86246,
                    -3.25941
                ]
            ],
            [
                [
                    -1.89592,
                    -0.0,
                    0.0
                ],
                [
                    0.00027,
                    -1.32278,
                    -0.52134
                ],
                [
                    -0.00014,
                    -0.86246,
                    -3.25941
                ]
            ],
            [
                [
                    -1.39021,
                    5e-05,
                    0.0
                ],
                [
                    -0.0,
                    -2.91707,
                    0.0
                ],
                [
                    0.0,
                    -0.00066,
                    -1.55304
                ]
            ]
        ]
    },
    "band_gap": 3.4754000000000005,
    "is_direct": false,
    "formula": "CsNaTiO3"
}