{
    "mp_id": "mp-557787",
    "nelements": 3,
    "nsites": 20,
    "elements": [
        "O",
        "Sb",
        "Tl"
    ],
    "structure": {
        "@module": "pymatgen.core.structure",
        "@class": "Structure",
        "charge": null,
        "lattice": {
            "matrix": [
                [
                    5.35549889,
                    0.0,
                    0.0
                ],
                [
                    -2.67774945,
                    4.63799845,
                    0.0
                ],
                [
                    0.0,
                    0.0,
                    14.3072689
                ]
            ],
            "a": 5.35549889,
            "b": 5.355499205412854,
            "c": 14.3072689,
            "alpha": 90.0,
            "beta": 90.0,
            "gamma": 119.99999811353241,
            "volume": 355.3753270973723
        },
        "sites": [
            {
                "species": [
                    {
                        "element": "Tl",
                        "occu": 1
                    }
                ],
                "abc": [
                    0.666667,
                    0.333333,
                    0.93252221
                ],
                "xyz": [
                    2.6777521210827797,
                    1.5459979373338502,
                    13.341846013692269
                ],
                "label": "Tl",
                "properties": {}
            },
            {
                "species": [
                    {
                        "element": "Tl",
                        "occu": 1
                    }
                ],
                "abc": [
                    0.333333,
                    0.666667,
                    0.43252221
                ],
                "xyz": [
                    -2.681082780231492e-06,
                    3.0920005126661505,
                    6.18821156369227
                ],
                "label": "Tl",
                "properties": {}
            },
            {
                "species": [
                    {
                        "element": "Tl",
                        "occu": 1
                    }
                ],
                "abc": [
                    0.333333,
                    0.666667,
                    0.06747779
                ],
                "xyz": [
                    -2.681082780231492e-06,
                    3.0920005126661505,
                    0.965422886307731
                ],
                "label": "Tl",
                "properties": {}
            },
            {
                "species": [
                    {
                        "element": "Tl",
                        "occu": 1
                    }
                ],
                "abc": [
                    0.666667,
                    0.333333,
                    0.56747779
                ],
                "xyz": [
                    2.6777521210827797,
                    1.5459979373338502,
                    8.119057336307732
                ],
                "label": "Tl",
                "properties": {}
            },
            {
                "species": [
                    {
                        "element": "Sb",
                        "occu": 1
                    }
                ],
                "abc": [
                    0.666667,
                    0.333333,
                    0.25
                ],
                "xyz": [
                    2.6777521210827797,
                    1.5459979373338502,
                    3.576817225
                ],
                "label": "Sb",
                "properties": {}
            },
            {
                "species": [
                    {
                        "element": "Sb",
                        "occu": 1
                    }
                ],
                "abc": [
                    0.0,
                    0.0,
                    0.25
                ],
                "xyz": [
                    0.0,
                    0.0,
                    3.576817225
                ],
                "label": "Sb",
                "properties": {}
            },
            {
                "species": [
                    {
                        "element": "Sb",
                        "occu": 1
                    }
                ],
                "abc": [
                    0.333333,
                    0.666667,
                    0.75
                ],
                "xyz": [
                    -2.681082780231492e-06,
                    3.0920005126661505,
                    10.730451675000001
                ],
                "label": "Sb",
                "properties": {}
            },
            {
                "species": [
                    {
                        "element": "Sb",
                        "occu": 1
                    }
                ],
                "abc": [
                    0.0,
                    0.0,
                    0.75
                ],
                "xyz": [
                    0.0,
                    0.0,
                    10.730451675000001
                ],
                "label": "Sb",
                "properties": {}
            },
            {
                "species": [
                    {
                        "element": "O",
                        "occu": 1
                    }
                ],
                "abc": [
                    0.28489472,
                    0.33332662,
                    0.82843454
                ],
                "xyz": [
                    0.6331881833515016,
                    1.5459683469037393,
                    11.852635729827806
                ],
                "label": "O",
                "properties": {}
            },
            {
                "species": [
                    {
                        "element": "O",
                        "occu": 1
                    }
                ],
                "abc": [
                    0.71510528,
                    0.04843291,
                    0.32843454
                ],
                "xyz": [
                    3.7000543351587396,
                    0.22463176150898953,
                    4.699001279827806
                ],
                "label": "O",
                "properties": {}
            },
            {
                "species": [
                    {
                        "element": "O",
                        "occu": 1
                    }
                ],
                "abc": [
                    0.71510528,
                    0.66667338,
                    0.17156546
                ],
                "xyz": [
                    2.044561256648498,
                    3.092030103096261,
                    2.454633170172194
                ],
                "label": "O",
                "properties": {}
            },
            {
                "species": [
                    {
                        "element": "O",
                        "occu": 1
                    }
                ],
                "abc": [
                    0.04843291,
                    0.33332662,
                    0.67156546
                ],
                "xyz": [
                    -0.6331827776308891,
                    1.5459683469037393,
                    9.608267620172194
                ],
                "label": "O",
                "properties": {}
            },
            {
                "species": [
                    {
                        "element": "O",
                        "occu": 1
                    }
                ],
                "abc": [
                    0.95156709,
                    0.28489472,
                    0.17156546
                ],
                "xyz": [
                    4.333239814467626,
                    1.3213412697731841,
                    2.454633170172194
                ],
                "label": "O",
                "properties": {}
            },
            {
                "species": [
                    {
                        "element": "O",
                        "occu": 1
                    }
                ],
                "abc": [
                    0.33332662,
                    0.04843291,
                    0.17156546
                ],
                "xyz": [
                    1.6554391453030524,
                    0.22463176150898953,
                    2.454633170172194
                ],
                "label": "O",
                "properties": {}
            },
            {
                "species": [
                    {
                        "element": "O",
                        "occu": 1
                    }
                ],
                "abc": [
                    0.66667338,
                    0.71510528,
                    0.67156546
                ],
                "xyz": [
                    1.655495776370452,
                    3.316657180226816,
                    9.608267620172194
                ],
                "label": "O",
                "properties": {}
            },
            {
                "species": [
                    {
                        "element": "O",
                        "occu": 1
                    }
                ],
                "abc": [
                    0.04843291,
                    0.71510528,
                    0.82843454
                ],
                "xyz": [
                    -1.655490374467626,
                    3.316657180226816,
                    11.852635729827806
                ],
                "label": "O",
                "properties": {}
            },
            {
                "species": [
                    {
                        "element": "O",
                        "occu": 1
                    }
                ],
                "abc": [
                    0.33332662,
                    0.28489472,
                    0.32843454
                ],
                "xyz": [
                    1.0222536636295478,
                    1.3213412697731841,
                    4.699001279827806
                ],
                "label": "O",
                "properties": {}
            },
            {
                "species": [
                    {
                        "element": "O",
                        "occu": 1
                    }
                ],
                "abc": [
                    0.66667338,
                    0.95156709,
                    0.82843454
                ],
                "xyz": [
                    1.0223102946969478,
                    4.413366688491011,
                    11.852635729827806
                ],
                "label": "O",
                "properties": {}
            },
            {
                "species": [
                    {
                        "element": "O",
                        "occu": 1
                    }
                ],
                "abc": [
                    0.95156709,
                    0.66667338,
                    0.32843454
                ],
                "xyz": [
                    3.3109322176308886,
                    3.092030103096261,
                    4.699001279827806
                ],
                "label": "O",
                "properties": {}
            },
            {
                "species": [
                    {
                        "element": "O",
                        "occu": 1
                    }
                ],
                "abc": [
                    0.28489472,
                    0.95156709,
                    0.67156546
                ],
                "xyz": [
                    -1.0223048951587395,
                    4.413366688491011,
                    9.608267620172194
                ],
                "label": "O",
                "properties": {}
            }
        ]
    },
    "spacegroup": {
        "source": "spglib",
        "symbol": "P-31c",
        "number": 163,
        "point_group": "-3m",
        "crystal_system": "trigonal",
        "hall": "-P 3 2c"
    },
    "dielectric": {
        "epsilon_ionic": [
            [
                6.24347654,
                4.8e-07,
                1.29e-06
            ],
            [
                4.8e-07,
                6.24337965,
                1e-08
            ],
            [
                1.29e-06,
                1e-08,
                5.69397691
            ]
        ],
        "epsilon_ionic_avg": 6.060277699999999,
        "epsilon_ionic_eig": [
            5.693976909996971,
            6.243476542380923,
            6.243379647622103
        ],
        "epsilon_electronic": [
            [
                4.54742592,
                -4.9e-07,
                0.0
            ],
            [
                -4.9e-07,
                4.54742555,
                -0.0
            ],
            [
                0.0,
                -0.0,
                4.34653138
            ]
        ],
        "epsilon_electronic_avg": 4.48046095,
        "epsilon_electronic_eig": [
            4.547426258760441,
            4.547425211239559,
            4.34653138
        ]
    },
    "phonon": {
        "lowest_freq": -0.012721123496770865,
        "frequency": [
            -0.012721123496770865,
            -0.010503963436739712,
            -0.010503962238467503,
            0.32123573599283667,
            0.6126365234995883,
            0.6126365933126323,
            1.4225288550353095,
            1.4225290182517607,
            1.649860954306331,
            1.6498611394735392,
            2.2031319354380097,
            2.2031321905839953,
            2.304314446432059,
            2.304314706283873,
            2.3489527931508656,
            2.440414319848879,
            2.526213829649421,
            3.18475072449949,
            4.333271933437356,
            4.338572591596669,
            5.42693906113536,
            5.426939308825757,
            5.431701409050811,
            5.431701634026476,
            7.318963958862589,
            7.444759102551191,
            7.504711677937492,
            7.644909103703794,
            8.426549325020831,
            8.426549731070999,
            8.42866498689945,
            8.428665392847696,
            8.964262607997451,
            8.96426352133571,
            8.96769683831119,
            8.967697751299678,
            14.538184761022876,
            14.538185265350203,
            14.568842770841322,
            14.568843274107362,
            14.713154783982871,
            14.713155581310579,
            14.715385786989863,
            14.715386592500927,
            15.878490646215283,
            15.878491107972259,
            15.87991941196007,
            15.879919873675501,
            16.65231069390714,
            17.530366792918056,
            17.533556255089323,
            18.49124929253612,
            18.498878263572237,
            18.547121198275345,
            18.547121264161614,
            18.549623324192538,
            18.54962339006992,
            19.054038624322292,
            19.057881496113943,
            19.203715979372962
        ]
    },
    "born_effective_charge": {
        "avg_abs_trace": 2.4880163333333334,
        "tensors": [
            [
                [
                    1.60222,
                    -0.01995,
                    -0.0
                ],
                [
                    0.01986,
                    1.60191,
                    0.00097
                ],
                [
                    -0.0,
                    -0.0,
                    2.11253
                ]
            ],
            [
                [
                    1.60222,
                    0.01995,
                    -0.0
                ],
                [
                    -0.02002,
                    1.60249,
                    0.0008
                ],
                [
                    -0.0,
                    -0.0,
                    2.11253
                ]
            ],
            [
                [
                    1.60222,
                    -0.01984,
                    0.0
                ],
                [
                    0.02002,
                    1.60249,
                    -0.0008
                ],
                [
                    -0.0,
                    -0.0,
                    2.11247
                ]
            ],
            [
                [
                    1.60222,
                    0.01984,
                    0.0
                ],
                [
                    -0.01986,
                    1.60191,
                    -0.00097
                ],
                [
                    -0.0,
                    -0.0,
                    2.11247
                ]
            ],
            [
                [
                    4.83995,
                    -4e-05,
                    1e-05
                ],
                [
                    -0.0,
                    4.83998,
                    0.0
                ],
                [
                    -0.0,
                    -0.0,
                    3.46112
                ]
            ],
            [
                [
                    5.10974,
                    2e-05,
                    2e-05
                ],
                [
                    -0.0,
                    5.1097,
                    0.0
                ],
                [
                    -0.0,
                    -0.0,
                    3.32596
                ]
            ],
            [
                [
                    4.83995,
                    4e-05,
                    1e-05
                ],
                [
                    -0.0,
                    4.84006,
                    0.0
                ],
                [
                    -0.0,
                    -0.0,
                    3.46112
                ]
            ],
            [
                [
                    5.10974,
                    -2e-05,
                    2e-05
                ],
                [
                    -0.0,
                    5.10954,
                    0.0
                ],
                [
                    -0.0,
                    -0.0,
                    3.32596
                ]
            ],
            [
                [
                    -1.99147,
                    0.04135,
                    -0.77466
                ],
                [
                    0.00806,
                    -2.39323,
                    -0.09263
                ],
                [
                    -0.70899,
                    -0.07486,
                    -1.83534
                ]
            ],
            [
                [
                    -2.2713,
                    0.16985,
                    0.46743
                ],
                [
                    0.20303,
                    -2.11322,
                    0.62434
                ],
                [
                    0.41932,
                    0.57658,
                    -1.83534
                ]
            ],
            [
                [
                    -1.99145,
                    0.04133,
                    -0.77465
                ],
                [
                    0.00845,
                    -2.39326,
                    -0.09245
                ],
                [
                    -0.70895,
                    -0.07484,
                    -1.83535
                ]
            ],
            [
                [
                    -1.99145,
                    -0.04133,
                    -0.77465
                ],
                [
                    -0.00806,
                    -2.39323,
                    0.09263
                ],
                [
                    -0.70895,
                    0.07484,
                    -1.83535
                ]
            ],
            [
                [
                    -2.31429,
                    0.17813,
                    0.30718
                ],
                [
                    0.14495,
                    -2.07053,
                    0.71725
                ],
                [
                    0.28966,
                    0.65139,
                    -1.83535
                ]
            ],
            [
                [
                    -2.27136,
                    -0.16984,
                    0.46747
                ],
                [
                    -0.20303,
                    -2.11322,
                    -0.62434
                ],
                [
                    0.41929,
                    -0.57655,
                    -1.83535
                ]
            ],
            [
                [
                    -2.31429,
                    -0.17813,
                    0.30718
                ],
                [
                    -0.14507,
                    -2.07029,
                    -0.71692
                ],
                [
                    0.28966,
                    -0.65139,
                    -1.83535
                ]
            ],
            [
                [
                    -2.31426,
                    0.17812,
                    0.3072
                ],
                [
                    0.14507,
                    -2.07029,
                    0.71692
                ],
                [
                    0.28967,
                    0.65143,
                    -1.83534
                ]
            ],
            [
                [
                    -2.31426,
                    -0.17812,
                    0.3072
                ],
                [
                    -0.14495,
                    -2.07053,
                    -0.71725
                ],
                [
                    0.28967,
                    -0.65143,
                    -1.83534
                ]
            ],
            [
                [
                    -2.2713,
                    -0.16985,
                    0.46743
                ],
                [
                    -0.20278,
                    -2.11351,
                    -0.62489
                ],
                [
                    0.41932,
                    -0.57658,
                    -1.83534
                ]
            ],
            [
                [
                    -1.99147,
                    -0.04135,
                    -0.77466
                ],
                [
                    -0.00845,
                    -2.39326,
                    0.09245
                ],
                [
                    -0.70899,
                    0.07486,
                    -1.83534
                ]
            ],
            [
                [
                    -2.27136,
                    0.16984,
                    0.46747
                ],
                [
                    0.20278,
                    -2.11351,
                    0.62489
                ],
                [
                    0.41929,
                    0.57655,
                    -1.83535
                ]
            ]
        ]
    },
    "band_gap": 2.3735000000000004,
    "is_direct": false,
    "formula": "TlSbO3"
}