{
    "mp_id": "mp-561277",
    "nelements": 3,
    "nsites": 24,
    "elements": [
        "K",
        "O",
        "Pb"
    ],
    "structure": {
        "@module": "pymatgen.core.structure",
        "@class": "Structure",
        "charge": null,
        "lattice": {
            "matrix": [
                [
                    6.04500848,
                    0.0,
                    0.0
                ],
                [
                    -3.02250374,
                    5.235131,
                    0.0
                ],
                [
                    0.0,
                    0.0,
                    12.49014854
                ]
            ],
            "a": 6.04500848,
            "b": 6.045008308139451,
            "c": 12.49014854,
            "alpha": 90.0,
            "beta": 90.0,
            "gamma": 119.99999546822262,
            "volume": 395.26837775642974
        },
        "sites": [
            {
                "species": [
                    {
                        "element": "K",
                        "occu": 1
                    }
                ],
                "abc": [
                    0.0,
                    0.68778804,
                    0.25
                ],
                "xyz": [
                    -2.0788419232272695,
                    3.60066048963324,
                    3.122537135
                ],
                "label": "K",
                "properties": {}
            },
            {
                "species": [
                    {
                        "element": "K",
                        "occu": 1
                    }
                ],
                "abc": [
                    0.31221196,
                    0.31221196,
                    0.25
                ],
                "xyz": [
                    0.9436621289846905,
                    1.63447051036676,
                    3.122537135
                ],
                "label": "K",
                "properties": {}
            },
            {
                "species": [
                    {
                        "element": "K",
                        "occu": 1
                    }
                ],
                "abc": [
                    0.0,
                    0.31221196,
                    0.75
                ],
                "xyz": [
                    -0.9436618167727304,
                    1.63447051036676,
                    9.367611405
                ],
                "label": "K",
                "properties": {}
            },
            {
                "species": [
                    {
                        "element": "K",
                        "occu": 1
                    }
                ],
                "abc": [
                    0.68778804,
                    0.0,
                    0.25
                ],
                "xyz": [
                    4.15768453424258,
                    0.0,
                    3.122537135
                ],
                "label": "K",
                "properties": {}
            },
            {
                "species": [
                    {
                        "element": "K",
                        "occu": 1
                    }
                ],
                "abc": [
                    0.0,
                    0.0,
                    0.0
                ],
                "xyz": [
                    0.0,
                    0.0,
                    0.0
                ],
                "label": "K",
                "properties": {}
            },
            {
                "species": [
                    {
                        "element": "K",
                        "occu": 1
                    }
                ],
                "abc": [
                    0.68778804,
                    0.68778804,
                    0.75
                ],
                "xyz": [
                    2.07884261101531,
                    3.60066048963324,
                    9.367611405
                ],
                "label": "K",
                "properties": {}
            },
            {
                "species": [
                    {
                        "element": "K",
                        "occu": 1
                    }
                ],
                "abc": [
                    0.0,
                    0.0,
                    0.5
                ],
                "xyz": [
                    0.0,
                    0.0,
                    6.24507427
                ],
                "label": "K",
                "properties": {}
            },
            {
                "species": [
                    {
                        "element": "K",
                        "occu": 1
                    }
                ],
                "abc": [
                    0.31221196,
                    0.0,
                    0.75
                ],
                "xyz": [
                    1.887323945757421,
                    0.0,
                    9.367611405
                ],
                "label": "K",
                "properties": {}
            },
            {
                "species": [
                    {
                        "element": "Pb",
                        "occu": 1
                    }
                ],
                "abc": [
                    0.666667,
                    0.333333,
                    0.5
                ],
                "xyz": [
                    3.02250742917074,
                    1.745041921623,
                    6.24507427
                ],
                "label": "Pb",
                "properties": {}
            },
            {
                "species": [
                    {
                        "element": "Pb",
                        "occu": 1
                    }
                ],
                "abc": [
                    0.333333,
                    0.666667,
                    0.5
                ],
                "xyz": [
                    -2.689170740310942e-06,
                    3.490089078377,
                    6.24507427
                ],
                "label": "Pb",
                "properties": {}
            },
            {
                "species": [
                    {
                        "element": "Pb",
                        "occu": 1
                    }
                ],
                "abc": [
                    0.666667,
                    0.333333,
                    0.0
                ],
                "xyz": [
                    3.02250742917074,
                    1.745041921623,
                    0.0
                ],
                "label": "Pb",
                "properties": {}
            },
            {
                "species": [
                    {
                        "element": "Pb",
                        "occu": 1
                    }
                ],
                "abc": [
                    0.333333,
                    0.666667,
                    0.0
                ],
                "xyz": [
                    -2.689170740310942e-06,
                    3.490089078377,
                    0.0
                ],
                "label": "Pb",
                "properties": {}
            },
            {
                "species": [
                    {
                        "element": "O",
                        "occu": 1
                    }
                ],
                "abc": [
                    0.0,
                    0.61280639,
                    0.89971395
                ],
                "xyz": [
                    -1.8522096056708985,
                    3.20812172928709,
                    11.237560879010132
                ],
                "label": "O",
                "properties": {}
            },
            {
                "species": [
                    {
                        "element": "O",
                        "occu": 1
                    }
                ],
                "abc": [
                    0.61280639,
                    0.0,
                    0.89971395
                ],
                "xyz": [
                    3.704419824148187,
                    0.0,
                    11.237560879010132
                ],
                "label": "O",
                "properties": {}
            },
            {
                "species": [
                    {
                        "element": "O",
                        "occu": 1
                    }
                ],
                "abc": [
                    0.61280639,
                    0.61280639,
                    0.10028605
                ],
                "xyz": [
                    1.8522102184772886,
                    3.20812172928709,
                    1.252587660989867
                ],
                "label": "O",
                "properties": {}
            },
            {
                "species": [
                    {
                        "element": "O",
                        "occu": 1
                    }
                ],
                "abc": [
                    0.0,
                    0.38719361,
                    0.39971395
                ],
                "xyz": [
                    -1.1702941343291013,
                    2.02700927071291,
                    4.9924866090101325
                ],
                "label": "O",
                "properties": {}
            },
            {
                "species": [
                    {
                        "element": "O",
                        "occu": 1
                    }
                ],
                "abc": [
                    0.38719361,
                    0.0,
                    0.39971395
                ],
                "xyz": [
                    2.3405886558518127,
                    0.0,
                    4.9924866090101325
                ],
                "label": "O",
                "properties": {}
            },
            {
                "species": [
                    {
                        "element": "O",
                        "occu": 1
                    }
                ],
                "abc": [
                    0.38719361,
                    0.0,
                    0.10028605
                ],
                "xyz": [
                    2.3405886558518127,
                    0.0,
                    1.252587660989867
                ],
                "label": "O",
                "properties": {}
            },
            {
                "species": [
                    {
                        "element": "O",
                        "occu": 1
                    }
                ],
                "abc": [
                    0.61280639,
                    0.0,
                    0.60028605
                ],
                "xyz": [
                    3.704419824148187,
                    0.0,
                    7.497661930989867
                ],
                "label": "O",
                "properties": {}
            },
            {
                "species": [
                    {
                        "element": "O",
                        "occu": 1
                    }
                ],
                "abc": [
                    0.0,
                    0.38719361,
                    0.10028605
                ],
                "xyz": [
                    -1.1702941343291013,
                    2.02700927071291,
                    1.252587660989867
                ],
                "label": "O",
                "properties": {}
            },
            {
                "species": [
                    {
                        "element": "O",
                        "occu": 1
                    }
                ],
                "abc": [
                    0.0,
                    0.61280639,
                    0.60028605
                ],
                "xyz": [
                    -1.8522096056708985,
                    3.20812172928709,
                    7.497661930989867
                ],
                "label": "O",
                "properties": {}
            },
            {
                "species": [
                    {
                        "element": "O",
                        "occu": 1
                    }
                ],
                "abc": [
                    0.61280639,
                    0.61280639,
                    0.39971395
                ],
                "xyz": [
                    1.8522102184772886,
                    3.20812172928709,
                    4.9924866090101325
                ],
                "label": "O",
                "properties": {}
            },
            {
                "species": [
                    {
                        "element": "O",
                        "occu": 1
                    }
                ],
                "abc": [
                    0.38719361,
                    0.38719361,
                    0.60028605
                ],
                "xyz": [
                    1.1702945215227114,
                    2.02700927071291,
                    7.497661930989867
                ],
                "label": "O",
                "properties": {}
            },
            {
                "species": [
                    {
                        "element": "O",
                        "occu": 1
                    }
                ],
                "abc": [
                    0.38719361,
                    0.38719361,
                    0.89971395
                ],
                "xyz": [
                    1.1702945215227114,
                    2.02700927071291,
                    11.237560879010132
                ],
                "label": "O",
                "properties": {}
            }
        ]
    },
    "spacegroup": {
        "source": "spglib",
        "symbol": "P6_3/mcm",
        "number": 193,
        "point_group": "6/mmm",
        "crystal_system": "hexagonal",
        "hall": "-P 6c 2"
    },
    "dielectric": {
        "epsilon_ionic": [
            [
                6.81709024,
                -3e-08,
                0.0
            ],
            [
                -3e-08,
                6.8164887,
                3e-08
            ],
            [
                0.0,
                3e-08,
                5.24333949
            ]
        ],
        "epsilon_ionic_avg": 6.292306143333331,
        "epsilon_ionic_eig": [
            6.817090240001495,
            6.816488699998498,
            5.243339489999999
        ],
        "epsilon_electronic": [
            [
                4.69175946,
                0.0,
                -0.0
            ],
            [
                0.0,
                4.69176037,
                -0.0
            ],
            [
                -0.0,
                0.0,
                3.75997303
            ]
        ],
        "epsilon_electronic_avg": 4.3811642866666665,
        "epsilon_electronic_eig": [
            4.69175946,
            4.69176037,
            3.75997303
        ]
    },
    "phonon": {
        "lowest_freq": -0.05162312111721553,
        "frequency": [
            -0.05162312111721553,
            -0.039781534028290676,
            -0.03978153018856722,
            1.0068621132008189,
            1.0068622078672542,
            2.4230030914856178,
            2.648203537220266,
            2.64820378178618,
            2.80896247777307,
            3.012407865591347,
            3.012408145493821,
            3.0210691500224782,
            3.0297603298572233,
            3.6661607689014377,
            3.840219834704169,
            3.840219856978947,
            4.000467108708102,
            4.166295740336332,
            4.176294827020937,
            4.1762948445771775,
            4.334011854788181,
            4.334011964751021,
            4.508358923089803,
            4.5083589935633785,
            4.996627150199979,
            4.9966275904171535,
            5.14715477439701,
            5.1471551067749814,
            5.320576344623748,
            5.399425716675897,
            5.4279110463372815,
            5.608807845215215,
            5.608808346320167,
            5.778224644363285,
            5.880811693796805,
            5.8808121717242665,
            8.279761276988705,
            8.279761941138618,
            8.474750723005718,
            8.474751429551924,
            8.623121125603483,
            8.666204879979711,
            8.79520488097068,
            8.795205700713213,
            8.924190896842106,
            8.924191745815845,
            9.391395788847003,
            9.553435102910623,
            9.553435179657926,
            9.655245779261723,
            10.009340829319951,
            10.00934086594576,
            10.057055401475804,
            10.057055462229206,
            10.319096105024945,
            10.319096152393461,
            11.019698330677011,
            11.019698386123206,
            11.257871428894479,
            11.356363926981192,
            11.356363959262668,
            11.961988456659835,
            11.992822477700933,
            13.173469076427176,
            13.173469104255853,
            13.273235089366677,
            13.273235116986186,
            13.769179422909831,
            13.790834044350124,
            14.162070637664115,
            14.333405100392667,
            14.505487223729215
        ]
    },
    "born_effective_charge": {
        "avg_abs_trace": 2.065522222222222,
        "tensors": [
            [
                [
                    1.06899,
                    0.08305,
                    -0.0
                ],
                [
                    0.08302,
                    0.97298,
                    -0.0
                ],
                [
                    4e-05,
                    -7e-05,
                    1.69993
                ]
            ],
            [
                [
                    1.06899,
                    -0.08305,
                    -0.0
                ],
                [
                    -0.08309,
                    0.973,
                    -0.0
                ],
                [
                    4e-05,
                    7e-05,
                    1.69993
                ]
            ],
            [
                [
                    1.06879,
                    0.08293,
                    -0.0
                ],
                [
                    0.08309,
                    0.973,
                    -0.0
                ],
                [
                    -4e-05,
                    7e-05,
                    1.69993
                ]
            ],
            [
                [
                    0.92514,
                    0.0,
                    -0.0
                ],
                [
                    -3e-05,
                    1.11678,
                    -0.0
                ],
                [
                    -8e-05,
                    0.0,
                    1.69993
                ]
            ],
            [
                [
                    1.24365,
                    0.0,
                    -0.0
                ],
                [
                    -0.0,
                    1.24359,
                    -0.0
                ],
                [
                    0.0,
                    0.0,
                    0.70592
                ]
            ],
            [
                [
                    1.06879,
                    -0.08293,
                    -0.0
                ],
                [
                    -0.08302,
                    0.97298,
                    -0.0
                ],
                [
                    -4e-05,
                    -7e-05,
                    1.69993
                ]
            ],
            [
                [
                    1.24365,
                    0.0,
                    0.0
                ],
                [
                    -0.0,
                    1.24359,
                    -0.0
                ],
                [
                    0.0,
                    0.0,
                    0.70592
                ]
            ],
            [
                [
                    0.92514,
                    0.0,
                    -0.0
                ],
                [
                    3e-05,
                    1.11678,
                    -0.0
                ],
                [
                    8e-05,
                    0.0,
                    1.69993
                ]
            ],
            [
                [
                    4.55256,
                    -0.00034,
                    0.00014
                ],
                [
                    0.0,
                    4.55241,
                    -0.0
                ],
                [
                    0.0,
                    0.0,
                    2.27549
                ]
            ],
            [
                [
                    4.55256,
                    0.00034,
                    0.00014
                ],
                [
                    -0.0,
                    4.55227,
                    -0.0
                ],
                [
                    0.0,
                    0.0,
                    2.27549
                ]
            ],
            [
                [
                    4.55256,
                    -0.00034,
                    -0.00014
                ],
                [
                    0.0,
                    4.55241,
                    -0.0
                ],
                [
                    0.0,
                    0.0,
                    2.27549
                ]
            ],
            [
                [
                    4.55256,
                    0.00034,
                    -0.00014
                ],
                [
                    -0.0,
                    4.55227,
                    -0.0
                ],
                [
                    0.0,
                    0.0,
                    2.27549
                ]
            ],
            [
                [
                    -2.49895,
                    -0.45711,
                    -0.02854
                ],
                [
                    -0.45713,
                    -1.97155,
                    0.04953
                ],
                [
                    -0.098,
                    0.16975,
                    -1.72631
                ]
            ],
            [
                [
                    -1.70727,
                    0.0,
                    0.05736
                ],
                [
                    -0.00027,
                    -2.76287,
                    -8e-05
                ],
                [
                    0.19601,
                    0.0,
                    -1.72631
                ]
            ],
            [
                [
                    -2.49936,
                    0.45693,
                    -0.0285
                ],
                [
                    0.45713,
                    -1.97155,
                    -0.04953
                ],
                [
                    -0.0981,
                    -0.16992,
                    -1.72592
                ]
            ],
            [
                [
                    -2.49936,
                    -0.45693,
                    0.0285
                ],
                [
                    -0.45707,
                    -1.97109,
                    -0.04957
                ],
                [
                    0.098,
                    -0.16975,
                    -1.72631
                ]
            ],
            [
                [
                    -1.70779,
                    0.0,
                    -0.05712
                ],
                [
                    0.00027,
                    -2.76287,
                    -8e-05
                ],
                [
                    -0.19601,
                    0.0,
                    -1.72631
                ]
            ],
            [
                [
                    -1.70779,
                    0.0,
                    0.05712
                ],
                [
                    0.00027,
                    -2.76287,
                    8e-05
                ],
                [
                    0.19621,
                    0.0,
                    -1.72592
                ]
            ],
            [
                [
                    -1.70727,
                    0.0,
                    -0.05736
                ],
                [
                    -0.00027,
                    -2.76287,
                    8e-05
                ],
                [
                    -0.19621,
                    0.0,
                    -1.72592
                ]
            ],
            [
                [
                    -2.49936,
                    -0.45693,
                    -0.0285
                ],
                [
                    -0.45707,
                    -1.97109,
                    0.04957
                ],
                [
                    -0.0981,
                    0.16992,
                    -1.72592
                ]
            ],
            [
                [
                    -2.49895,
                    -0.45711,
                    0.02854
                ],
                [
                    -0.45713,
                    -1.97155,
                    -0.04953
                ],
                [
                    0.0981,
                    -0.16992,
                    -1.72592
                ]
            ],
            [
                [
                    -2.49936,
                    0.45693,
                    0.0285
                ],
                [
                    0.45713,
                    -1.97155,
                    0.04953
                ],
                [
                    0.098,
                    0.16975,
                    -1.72631
                ]
            ],
            [
                [
                    -2.49895,
                    0.45711,
                    0.02854
                ],
                [
                    0.45707,
                    -1.97109,
                    0.04957
                ],
                [
                    0.0981,
                    0.16992,
                    -1.72592
                ]
            ],
            [
                [
                    -2.49895,
                    0.45711,
                    -0.02854
                ],
                [
                    0.45707,
                    -1.97109,
                    -0.04957
                ],
                [
                    -0.098,
                    -0.16975,
                    -1.72631
                ]
            ]
        ]
    },
    "band_gap": 1.2156,
    "is_direct": false,
    "formula": "K2PbO3"
}