{
    "mp_id": "mp-558894",
    "nelements": 4,
    "nsites": 34,
    "elements": [
        "Ba",
        "O",
        "Pt",
        "Ti"
    ],
    "structure": {
        "@module": "pymatgen.core.structure",
        "@class": "Structure",
        "charge": null,
        "lattice": {
            "matrix": [
                [
                    2.90159477,
                    -6.65202747,
                    0.0
                ],
                [
                    2.90159477,
                    6.65202747,
                    0.0
                ],
                [
                    0.0,
                    0.0,
                    13.19634941
                ]
            ],
            "a": 7.257321935185592,
            "b": 7.257321935185592,
            "c": 13.19634941,
            "alpha": 90.0,
            "beta": 90.0,
            "gamma": 132.86662435191204,
            "volume": 509.418362645787
        },
        "sites": [
            {
                "species": [
                    {
                        "element": "Ba",
                        "occu": 1
                    }
                ],
                "abc": [
                    0.96973846,
                    0.03026154,
                    0.64007763
                ],
                "xyz": [
                    2.90159477,
                    -6.249426279270992,
                    8.446688055004698
                ],
                "label": "Ba",
                "properties": {}
            },
            {
                "species": [
                    {
                        "element": "Ba",
                        "occu": 1
                    }
                ],
                "abc": [
                    0.73485737,
                    0.26514263,
                    0.39184966
                ],
                "xyz": [
                    2.90159477,
                    -3.124555353543908,
                    5.1709850295497
                ],
                "label": "Ba",
                "properties": {}
            },
            {
                "species": [
                    {
                        "element": "Ba",
                        "occu": 1
                    }
                ],
                "abc": [
                    0.23485737,
                    0.76514263,
                    0.10815034
                ],
                "xyz": [
                    2.90159477,
                    3.5274721164560923,
                    1.4271896754502993
                ],
                "label": "Ba",
                "properties": {}
            },
            {
                "species": [
                    {
                        "element": "Ba",
                        "occu": 1
                    }
                ],
                "abc": [
                    0.53026154,
                    0.46973846,
                    0.14007763
                ],
                "xyz": [
                    2.90159477,
                    -0.4026011907290079,
                    1.8485133500046984
                ],
                "label": "Ba",
                "properties": {}
            },
            {
                "species": [
                    {
                        "element": "Ba",
                        "occu": 1
                    }
                ],
                "abc": [
                    0.46973846,
                    0.53026154,
                    0.85992237
                ],
                "xyz": [
                    2.90159477,
                    0.4026011907290079,
                    11.347836059995302
                ],
                "label": "Ba",
                "properties": {}
            },
            {
                "species": [
                    {
                        "element": "Ba",
                        "occu": 1
                    }
                ],
                "abc": [
                    0.76514263,
                    0.23485737,
                    0.89184966
                ],
                "xyz": [
                    2.90159477,
                    -3.5274721164560923,
                    11.7691597345497
                ],
                "label": "Ba",
                "properties": {}
            },
            {
                "species": [
                    {
                        "element": "Ba",
                        "occu": 1
                    }
                ],
                "abc": [
                    0.03026154,
                    0.96973846,
                    0.35992237
                ],
                "xyz": [
                    2.90159477,
                    6.249426279270992,
                    4.749661354995301
                ],
                "label": "Ba",
                "properties": {}
            },
            {
                "species": [
                    {
                        "element": "Ba",
                        "occu": 1
                    }
                ],
                "abc": [
                    0.26514263,
                    0.73485737,
                    0.60815034
                ],
                "xyz": [
                    2.90159477,
                    3.124555353543908,
                    8.0253643804503
                ],
                "label": "Ba",
                "properties": {}
            },
            {
                "species": [
                    {
                        "element": "Ti",
                        "occu": 1
                    }
                ],
                "abc": [
                    0.6342368,
                    0.3657632,
                    0.65363386
                ],
                "xyz": [
                    2.90159477,
                    -1.785893762169792,
                    8.625580802767022
                ],
                "label": "Ti",
                "properties": {}
            },
            {
                "species": [
                    {
                        "element": "Ti",
                        "occu": 1
                    }
                ],
                "abc": [
                    0.8657632,
                    0.1342368,
                    0.15363386
                ],
                "xyz": [
                    2.9015947699999995,
                    -4.866133707830208,
                    2.0274060977670225
                ],
                "label": "Ti",
                "properties": {}
            },
            {
                "species": [
                    {
                        "element": "Ti",
                        "occu": 1
                    }
                ],
                "abc": [
                    0.3657632,
                    0.6342368,
                    0.34636614
                ],
                "xyz": [
                    2.90159477,
                    1.785893762169792,
                    4.570768607232977
                ],
                "label": "Ti",
                "properties": {}
            },
            {
                "species": [
                    {
                        "element": "Ti",
                        "occu": 1
                    }
                ],
                "abc": [
                    0.1342368,
                    0.8657632,
                    0.84636614
                ],
                "xyz": [
                    2.9015947699999995,
                    4.866133707830208,
                    11.168943312232978
                ],
                "label": "Ti",
                "properties": {}
            },
            {
                "species": [
                    {
                        "element": "Pt",
                        "occu": 1
                    }
                ],
                "abc": [
                    0.5,
                    0.5,
                    0.5
                ],
                "xyz": [
                    2.90159477,
                    0.0,
                    6.598174705
                ],
                "label": "Pt",
                "properties": {}
            },
            {
                "species": [
                    {
                        "element": "Pt",
                        "occu": 1
                    }
                ],
                "abc": [
                    0.0,
                    0.0,
                    0.0
                ],
                "xyz": [
                    0.0,
                    0.0,
                    0.0
                ],
                "label": "Pt",
                "properties": {}
            },
            {
                "species": [
                    {
                        "element": "O",
                        "occu": 1
                    }
                ],
                "abc": [
                    0.03258328,
                    0.96741672,
                    0.14971946
                ],
                "xyz": [
                    2.90159477,
                    6.218537722754597,
                    1.9757503076365186
                ],
                "label": "O",
                "properties": {}
            },
            {
                "species": [
                    {
                        "element": "O",
                        "occu": 1
                    }
                ],
                "abc": [
                    0.22691069,
                    0.77308931,
                    0.34873973
                ],
                "xyz": [
                    2.9015947700000004,
                    3.6331951837666914,
                    4.60209133022906
                ],
                "label": "O",
                "properties": {}
            },
            {
                "species": [
                    {
                        "element": "O",
                        "occu": 1
                    }
                ],
                "abc": [
                    0.88276897,
                    0.66413175,
                    0.96419759
                ],
                "xyz": [
                    4.488479038861234,
                    -1.4543807934044333,
                    12.723888297919922
                ],
                "label": "O",
                "properties": {}
            },
            {
                "species": [
                    {
                        "element": "O",
                        "occu": 1
                    }
                ],
                "abc": [
                    0.38276897,
                    0.16413175,
                    0.53580241
                ],
                "xyz": [
                    1.5868842688612343,
                    -1.4543807934044335,
                    7.070635817080078
                ],
                "label": "O",
                "properties": {}
            },
            {
                "species": [
                    {
                        "element": "O",
                        "occu": 1
                    }
                ],
                "abc": [
                    0.12776838,
                    0.37223162,
                    0.25
                ],
                "xyz": [
                    1.450797385,
                    1.6261761878852028,
                    3.2990873525
                ],
                "label": "O",
                "properties": {}
            },
            {
                "species": [
                    {
                        "element": "O",
                        "occu": 1
                    }
                ],
                "abc": [
                    0.62776838,
                    0.87223162,
                    0.25
                ],
                "xyz": [
                    4.352392155,
                    1.6261761878852035,
                    3.2990873525
                ],
                "label": "O",
                "properties": {}
            },
            {
                "species": [
                    {
                        "element": "O",
                        "occu": 1
                    }
                ],
                "abc": [
                    0.77308931,
                    0.22691069,
                    0.65126027
                ],
                "xyz": [
                    2.9015947700000004,
                    -3.6331951837666914,
                    8.59425807977094
                ],
                "label": "O",
                "properties": {}
            },
            {
                "species": [
                    {
                        "element": "O",
                        "occu": 1
                    }
                ],
                "abc": [
                    0.53258328,
                    0.46741672,
                    0.35028054
                ],
                "xyz": [
                    2.90159477,
                    -0.4334897472454031,
                    4.622424397363481
                ],
                "label": "O",
                "properties": {}
            },
            {
                "species": [
                    {
                        "element": "O",
                        "occu": 1
                    }
                ],
                "abc": [
                    0.87223162,
                    0.62776838,
                    0.75
                ],
                "xyz": [
                    4.352392155,
                    -1.6261761878852035,
                    9.8972620575
                ],
                "label": "O",
                "properties": {}
            },
            {
                "species": [
                    {
                        "element": "O",
                        "occu": 1
                    }
                ],
                "abc": [
                    0.33586825,
                    0.11723103,
                    0.96419759
                ],
                "xyz": [
                    1.3147105011387656,
                    -1.4543807934044333,
                    12.723888297919922
                ],
                "label": "O",
                "properties": {}
            },
            {
                "species": [
                    {
                        "element": "O",
                        "occu": 1
                    }
                ],
                "abc": [
                    0.27308931,
                    0.72691069,
                    0.84873973
                ],
                "xyz": [
                    2.9015947699999995,
                    3.018832286233309,
                    11.20026603522906
                ],
                "label": "O",
                "properties": {}
            },
            {
                "species": [
                    {
                        "element": "O",
                        "occu": 1
                    }
                ],
                "abc": [
                    0.96741672,
                    0.03258328,
                    0.85028054
                ],
                "xyz": [
                    2.90159477,
                    -6.218537722754597,
                    11.220599102363481
                ],
                "label": "O",
                "properties": {}
            },
            {
                "species": [
                    {
                        "element": "O",
                        "occu": 1
                    }
                ],
                "abc": [
                    0.37223162,
                    0.12776838,
                    0.75
                ],
                "xyz": [
                    1.450797385,
                    -1.6261761878852028,
                    9.8972620575
                ],
                "label": "O",
                "properties": {}
            },
            {
                "species": [
                    {
                        "element": "O",
                        "occu": 1
                    }
                ],
                "abc": [
                    0.61723103,
                    0.83586825,
                    0.46419759
                ],
                "xyz": [
                    4.216305271138766,
                    1.4543807934044333,
                    6.125713592919921
                ],
                "label": "O",
                "properties": {}
            },
            {
                "species": [
                    {
                        "element": "O",
                        "occu": 1
                    }
                ],
                "abc": [
                    0.11723103,
                    0.33586825,
                    0.03580241
                ],
                "xyz": [
                    1.3147105011387656,
                    1.4543807934044333,
                    0.47246111208007807
                ],
                "label": "O",
                "properties": {}
            },
            {
                "species": [
                    {
                        "element": "O",
                        "occu": 1
                    }
                ],
                "abc": [
                    0.72691069,
                    0.27308931,
                    0.15126027
                ],
                "xyz": [
                    2.9015947699999995,
                    -3.018832286233309,
                    1.9960833747709408
                ],
                "label": "O",
                "properties": {}
            },
            {
                "species": [
                    {
                        "element": "O",
                        "occu": 1
                    }
                ],
                "abc": [
                    0.16413175,
                    0.38276897,
                    0.46419759
                ],
                "xyz": [
                    1.5868842688612343,
                    1.4543807934044335,
                    6.125713592919921
                ],
                "label": "O",
                "properties": {}
            },
            {
                "species": [
                    {
                        "element": "O",
                        "occu": 1
                    }
                ],
                "abc": [
                    0.66413175,
                    0.88276897,
                    0.03580241
                ],
                "xyz": [
                    4.488479038861234,
                    1.4543807934044333,
                    0.47246111208007807
                ],
                "label": "O",
                "properties": {}
            },
            {
                "species": [
                    {
                        "element": "O",
                        "occu": 1
                    }
                ],
                "abc": [
                    0.46741672,
                    0.53258328,
                    0.64971946
                ],
                "xyz": [
                    2.90159477,
                    0.4334897472454031,
                    8.573925012636519
                ],
                "label": "O",
                "properties": {}
            },
            {
                "species": [
                    {
                        "element": "O",
                        "occu": 1
                    }
                ],
                "abc": [
                    0.83586825,
                    0.61723103,
                    0.53580241
                ],
                "xyz": [
                    4.216305271138766,
                    -1.4543807934044333,
                    7.070635817080078
                ],
                "label": "O",
                "properties": {}
            }
        ]
    },
    "spacegroup": {
        "source": "spglib",
        "symbol": "Cmce",
        "number": 64,
        "point_group": "mmm",
        "crystal_system": "orthorhombic",
        "hall": "-C 2bc 2"
    },
    "dielectric": {
        "epsilon_ionic": [
            [
                16.68718861,
                -0.0,
                -0.0
            ],
            [
                -0.0,
                11.91563629,
                -0.0
            ],
            [
                -0.0,
                -0.0,
                31.23336115
            ]
        ],
        "epsilon_ionic_avg": 19.945395350000002,
        "epsilon_ionic_eig": [
            16.68718861,
            11.91563629,
            31.23336115
        ],
        "epsilon_electronic": [
            [
                4.76043174,
                0.0,
                0.0
            ],
            [
                0.0,
                5.04784641,
                0.0
            ],
            [
                0.0,
                0.0,
                5.11050339
            ]
        ],
        "epsilon_electronic_avg": 4.97292718,
        "epsilon_electronic_eig": [
            4.76043174,
            5.04784641,
            5.11050339
        ]
    },
    "phonon": {
        "lowest_freq": -0.018185429597543396,
        "frequency": [
            -0.018185429597543396,
            -0.016208272015365552,
            -0.007679911312582791,
            1.4718919090105365,
            1.488333574538632,
            1.7052006652782496,
            1.8335818341395904,
            1.874046959593952,
            1.910055789969522,
            2.069890274944229,
            2.2187289680070172,
            2.5990321459962935,
            2.599654447210583,
            2.612050886388542,
            2.6651217387962247,
            2.7324587955921498,
            2.949168867499319,
            3.0022529937552904,
            3.0263563972161793,
            3.1078305548534484,
            3.181645581099459,
            3.3494580294147105,
            3.395271423390346,
            3.431091068726919,
            3.512905353600669,
            3.5326944594078533,
            3.5538958978906323,
            3.6979356721093892,
            3.7112821493648767,
            3.788259163260389,
            3.8565149533403824,
            4.059031142426216,
            4.292616411483401,
            4.357163992058106,
            4.5707596263570105,
            4.598962518364452,
            4.655015874844536,
            5.091141354943404,
            5.33381113745092,
            5.821609616467628,
            5.929683813078205,
            6.115382714685145,
            6.122330627170658,
            6.192057963530398,
            6.728254078070472,
            7.129415455985414,
            7.300835405555296,
            7.5180074043311516,
            8.014018988494193,
            8.068482577991716,
            8.15250850731748,
            8.302284245167368,
            8.474004779222598,
            8.558712689963297,
            8.874392301102006,
            8.91517384115306,
            9.188714702380311,
            9.529965370424051,
            9.712727009352838,
            9.801029849520868,
            9.937018870736454,
            10.041076677451635,
            10.382810698612614,
            10.572920830665325,
            10.704360155029953,
            10.938687220108191,
            11.13043967655197,
            11.233756195158168,
            11.382105228260157,
            11.495958197864676,
            11.878301898841263,
            11.88771479371505,
            11.978904643240167,
            11.983405333486562,
            12.244534140141614,
            12.247489929908989,
            12.531557428217651,
            13.24890190235236,
            13.256870838615669,
            14.687795715154504,
            15.207384290182764,
            15.521854704283674,
            15.539174805277968,
            16.023041783059547,
            16.360428760178248,
            16.741818510834825,
            16.828522163128575,
            16.904328271954178,
            16.943061279207182,
            16.964433058863143,
            17.089992041072726,
            17.754110410930494,
            17.792548642346016,
            17.82613548365307,
            18.25058311089708,
            18.305393332162936,
            19.62877350514668,
            19.97670786797549,
            20.839588845112793,
            20.98228605968607,
            23.450677331805938,
            24.522295759999576
        ]
    },
    "born_effective_charge": {
        "avg_abs_trace": 2.7982958823529414,
        "tensors": [
            [
                [
                    2.99678,
                    -0.00012,
                    -5e-05
                ],
                [
                    -0.0,
                    2.88083,
                    -0.06037
                ],
                [
                    -0.0,
                    -0.15376,
                    2.77299
                ]
            ],
            [
                [
                    2.71159,
                    -0.00013,
                    0.00012
                ],
                [
                    -0.0,
                    3.35426,
                    0.72388
                ],
                [
                    -0.0,
                    0.44826,
                    2.50956
                ]
            ],
            [
                [
                    2.71159,
                    -0.00013,
                    -0.00012
                ],
                [
                    -0.0,
                    3.35426,
                    -0.72388
                ],
                [
                    -0.0,
                    -0.44829,
                    2.5095
                ]
            ],
            [
                [
                    2.99678,
                    0.00012,
                    -5e-05
                ],
                [
                    -0.0,
                    2.88068,
                    0.06035
                ],
                [
                    -0.0,
                    0.15376,
                    2.77299
                ]
            ],
            [
                [
                    2.99678,
                    -0.00012,
                    5e-05
                ],
                [
                    -0.0,
                    2.88083,
                    0.06037
                ],
                [
                    -0.0,
                    0.15365,
                    2.77314
                ]
            ],
            [
                [
                    2.71159,
                    0.00013,
                    0.00012
                ],
                [
                    -0.0,
                    3.35438,
                    -0.72386
                ],
                [
                    -0.0,
                    -0.44826,
                    2.50956
                ]
            ],
            [
                [
                    2.99678,
                    0.00012,
                    5e-05
                ],
                [
                    -0.0,
                    2.88068,
                    -0.06035
                ],
                [
                    -0.0,
                    -0.15365,
                    2.77314
                ]
            ],
            [
                [
                    2.71159,
                    0.00013,
                    -0.00012
                ],
                [
                    -0.0,
                    3.35438,
                    0.72386
                ],
                [
                    -0.0,
                    0.44829,
                    2.5095
                ]
            ],
            [
                [
                    5.10151,
                    0.0001,
                    -7e-05
                ],
                [
                    -0.0,
                    4.74792,
                    -0.76628
                ],
                [
                    -0.0,
                    -0.88519,
                    5.80182
                ]
            ],
            [
                [
                    5.10151,
                    -0.0001,
                    -7e-05
                ],
                [
                    -0.0,
                    4.74745,
                    0.76619
                ],
                [
                    -0.0,
                    0.88519,
                    5.80182
                ]
            ],
            [
                [
                    5.10151,
                    -0.0001,
                    7e-05
                ],
                [
                    -0.0,
                    4.74745,
                    -0.76619
                ],
                [
                    -0.0,
                    -0.88512,
                    5.80165
                ]
            ],
            [
                [
                    5.10151,
                    0.0001,
                    7e-05
                ],
                [
                    -0.0,
                    4.74792,
                    0.76628
                ],
                [
                    -0.0,
                    0.88512,
                    5.80165
                ]
            ],
            [
                [
                    1.41042,
                    -0.0,
                    0.0
                ],
                [
                    -0.0,
                    2.05077,
                    -0.24372
                ],
                [
                    -0.0,
                    -0.66237,
                    2.14142
                ]
            ],
            [
                [
                    1.41042,
                    -0.0,
                    0.0
                ],
                [
                    -0.0,
                    2.05077,
                    0.24372
                ],
                [
                    -0.0,
                    0.66237,
                    2.14142
                ]
            ],
            [
                [
                    -1.49038,
                    0.0002,
                    -0.00017
                ],
                [
                    -0.0,
                    -2.31224,
                    0.13488
                ],
                [
                    -0.0,
                    0.04046,
                    -2.88623
                ]
            ],
            [
                [
                    -1.75126,
                    1e-05,
                    -0.00021
                ],
                [
                    -0.0,
                    -4.09995,
                    -0.05959
                ],
                [
                    -0.0,
                    -0.14037,
                    -1.5446
                ]
            ],
            [
                [
                    -2.17065,
                    -0.38239,
                    0.08325
                ],
                [
                    -0.46547,
                    -2.1122,
                    -0.2435
                ],
                [
                    0.06419,
                    -0.62562,
                    -2.13932
                ]
            ],
            [
                [
                    -2.17065,
                    -0.38239,
                    -0.08325
                ],
                [
                    -0.46547,
                    -2.1122,
                    0.2435
                ],
                [
                    -0.06412,
                    0.62568,
                    -2.13926
                ]
            ],
            [
                [
                    -3.93241,
                    1e-05,
                    -2.02388
                ],
                [
                    -0.0,
                    -1.37188,
                    0.0
                ],
                [
                    -1.9145,
                    3e-05,
                    -3.44567
                ]
            ],
            [
                [
                    -3.93241,
                    1e-05,
                    2.02388
                ],
                [
                    -0.0,
                    -1.37188,
                    0.0
                ],
                [
                    1.9145,
                    3e-05,
                    -3.44567
                ]
            ],
            [
                [
                    -1.75126,
                    -1e-05,
                    0.00021
                ],
                [
                    -0.0,
                    -4.09992,
                    -0.05966
                ],
                [
                    -0.0,
                    -0.14025,
                    -1.54459
                ]
            ],
            [
                [
                    -1.49038,
                    0.0002,
                    0.00017
                ],
                [
                    -0.0,
                    -2.31224,
                    -0.13488
                ],
                [
                    -0.0,
                    -0.04047,
                    -2.88617
                ]
            ],
            [
                [
                    -3.93241,
                    -1e-05,
                    -2.02388
                ],
                [
                    -0.0,
                    -1.3718,
                    0.0
                ],
                [
                    -1.9145,
                    -3e-05,
                    -3.44567
                ]
            ],
            [
                [
                    -2.17038,
                    0.38237,
                    -0.08342
                ],
                [
                    0.46547,
                    -2.1122,
                    -0.2435
                ],
                [
                    -0.06419,
                    -0.62562,
                    -2.13932
                ]
            ],
            [
                [
                    -1.75126,
                    -1e-05,
                    -0.00021
                ],
                [
                    -0.0,
                    -4.09992,
                    0.05966
                ],
                [
                    -0.0,
                    0.14037,
                    -1.5446
                ]
            ],
            [
                [
                    -1.49038,
                    -0.0002,
                    0.00017
                ],
                [
                    -0.0,
                    -2.31204,
                    0.13453
                ],
                [
                    -0.0,
                    0.04047,
                    -2.88617
                ]
            ],
            [
                [
                    -3.93241,
                    -1e-05,
                    2.02388
                ],
                [
                    -0.0,
                    -1.3718,
                    0.0
                ],
                [
                    1.9145,
                    -3e-05,
                    -3.44567
                ]
            ],
            [
                [
                    -2.17038,
                    -0.38237,
                    -0.08342
                ],
                [
                    -0.46548,
                    -2.11203,
                    0.2438
                ],
                [
                    -0.06419,
                    0.62562,
                    -2.13932
                ]
            ],
            [
                [
                    -2.17038,
                    -0.38237,
                    0.08342
                ],
                [
                    -0.46548,
                    -2.11203,
                    -0.2438
                ],
                [
                    0.06412,
                    -0.62568,
                    -2.13926
                ]
            ],
            [
                [
                    -1.75126,
                    1e-05,
                    0.00021
                ],
                [
                    -0.0,
                    -4.09995,
                    0.05959
                ],
                [
                    -0.0,
                    0.14025,
                    -1.54459
                ]
            ],
            [
                [
                    -2.17065,
                    0.38239,
                    0.08325
                ],
                [
                    0.46548,
                    -2.11203,
                    0.2438
                ],
                [
                    0.06419,
                    0.62562,
                    -2.13932
                ]
            ],
            [
                [
                    -2.17065,
                    0.38239,
                    -0.08325
                ],
                [
                    0.46548,
                    -2.11203,
                    -0.2438
                ],
                [
                    -0.06412,
                    -0.62568,
                    -2.13926
                ]
            ],
            [
                [
                    -1.49038,
                    -0.0002,
                    -0.00017
                ],
                [
                    -0.0,
                    -2.31204,
                    -0.13453
                ],
                [
                    -0.0,
                    -0.04046,
                    -2.88623
                ]
            ],
            [
                [
                    -2.17038,
                    0.38237,
                    0.08342
                ],
                [
                    0.46547,
                    -2.1122,
                    0.2435
                ],
                [
                    0.06412,
                    0.62568,
                    -2.13926
                ]
            ]
        ]
    },
    "band_gap": 2.4665,
    "is_direct": false,
    "formula": "Ba4Ti2PtO10"
}