{
    "mp_id": "mp-549737",
    "nelements": 4,
    "nsites": 11,
    "elements": [
        "B",
        "Ba",
        "Ca",
        "O"
    ],
    "structure": {
        "@module": "pymatgen.core.structure",
        "@class": "Structure",
        "charge": null,
        "lattice": {
            "matrix": [
                [
                    4.83427316,
                    -2.71694416,
                    -0.00126896
                ],
                [
                    4.83427316,
                    2.71694416,
                    -0.00126896
                ],
                [
                    -3.27754456,
                    0.0,
                    5.72709405
                ]
            ],
            "a": 5.545447156390003,
            "b": 5.545447156390003,
            "c": 6.598628993990418,
            "alpha": 115.67082587542467,
            "beta": 115.67082587542467,
            "gamma": 58.673460473360166,
            "volume": 150.42186358554304
        },
        "sites": [
            {
                "species": [
                    {
                        "element": "Ba",
                        "occu": 1
                    }
                ],
                "abc": [
                    0.21146394,
                    0.21146394,
                    0.18556181
                ],
                "xyz": [
                    1.4363617979904473,
                    0.0,
                    1.0621932593956256
                ],
                "label": "Ba",
                "properties": {}
            },
            {
                "species": [
                    {
                        "element": "Ba",
                        "occu": 1
                    }
                ],
                "abc": [
                    0.78853606,
                    0.78853606,
                    0.81443819
                ],
                "xyz": [
                    4.954639962009553,
                    0.0,
                    4.662362870604373
                ],
                "label": "Ba",
                "properties": {}
            },
            {
                "species": [
                    {
                        "element": "Ca",
                        "occu": 1
                    }
                ],
                "abc": [
                    0.0,
                    0.0,
                    0.5
                ],
                "xyz": [
                    -1.63877228,
                    0.0,
                    2.863547025
                ],
                "label": "Ca",
                "properties": {}
            },
            {
                "species": [
                    {
                        "element": "B",
                        "occu": 1
                    }
                ],
                "abc": [
                    0.56221115,
                    0.56221115,
                    0.25443054
                ],
                "xyz": [
                    4.601857113120606,
                    0.0,
                    1.455720784850479
                ],
                "label": "B",
                "properties": {}
            },
            {
                "species": [
                    {
                        "element": "B",
                        "occu": 1
                    }
                ],
                "abc": [
                    0.43778885,
                    0.43778885,
                    0.74556946
                ],
                "xyz": [
                    1.7891446468793952,
                    0.0,
                    4.268835345149521
                ],
                "label": "B",
                "properties": {}
            },
            {
                "species": [
                    {
                        "element": "O",
                        "occu": 1
                    }
                ],
                "abc": [
                    0.72366642,
                    0.72366642,
                    0.32634068
                ],
                "xyz": [
                    5.9272061815578745,
                    0.0,
                    1.8671471592203075
                ],
                "label": "O",
                "properties": {}
            },
            {
                "species": [
                    {
                        "element": "O",
                        "occu": 1
                    }
                ],
                "abc": [
                    0.73991051,
                    0.29788613,
                    0.77458809
                ],
                "xyz": [
                    2.4782454616698932,
                    -1.2009555578186208,
                    4.43482191901557
                ],
                "label": "O",
                "properties": {}
            },
            {
                "species": [
                    {
                        "element": "O",
                        "occu": 1
                    }
                ],
                "abc": [
                    0.70211387,
                    0.26008949,
                    0.22541191
                ],
                "xyz": [
                    3.912756298330109,
                    -1.200955557818621,
                    1.2897342109844299
                ],
                "label": "O",
                "properties": {}
            },
            {
                "species": [
                    {
                        "element": "O",
                        "occu": 1
                    }
                ],
                "abc": [
                    0.27633358,
                    0.27633358,
                    0.67365932
                ],
                "xyz": [
                    0.4637955784421268,
                    0.0,
                    3.8574089707796917
                ],
                "label": "O",
                "properties": {}
            },
            {
                "species": [
                    {
                        "element": "O",
                        "occu": 1
                    }
                ],
                "abc": [
                    0.29788613,
                    0.73991051,
                    0.77458809
                ],
                "xyz": [
                    2.4782454616698932,
                    1.2009555578186208,
                    4.43482191901557
                ],
                "label": "O",
                "properties": {}
            },
            {
                "species": [
                    {
                        "element": "O",
                        "occu": 1
                    }
                ],
                "abc": [
                    0.26008949,
                    0.70211387,
                    0.22541191
                ],
                "xyz": [
                    3.912756298330109,
                    1.200955557818621,
                    1.2897342109844299
                ],
                "label": "O",
                "properties": {}
            }
        ]
    },
    "spacegroup": {
        "source": "spglib",
        "symbol": "C2/m",
        "number": 12,
        "point_group": "2/m",
        "crystal_system": "monoclinic",
        "hall": "-C 2y"
    },
    "dielectric": {
        "epsilon_ionic": [
            [
                7.74367904,
                -1e-08,
                -0.29122542
            ],
            [
                -1e-08,
                8.27876612,
                1e-08
            ],
            [
                -0.29122542,
                1e-08,
                9.74943354
            ]
        ],
        "epsilon_ionic_avg": 8.590626233333332,
        "epsilon_ionic_eig": [
            7.702250288953493,
            9.790862291046503,
            8.27876612
        ],
        "epsilon_electronic": [
            [
                3.63347343,
                0.0,
                0.0920567
            ],
            [
                0.0,
                3.60677133,
                0.0
            ],
            [
                0.09219602,
                0.0,
                3.22832373
            ]
        ],
        "epsilon_electronic_avg": 3.48952283,
        "epsilon_electronic_eig": [
            3.6534380848229784,
            3.2083590751770217,
            3.60677133
        ]
    },
    "phonon": {
        "lowest_freq": -0.02587948372291619,
        "frequency": [
            -0.02587948372291619,
            -0.018360460169258477,
            -0.015706171738881364,
            2.4597425741677554,
            2.52903641232484,
            3.3256807232118106,
            3.5302688888409866,
            4.365986611632311,
            4.483523661460717,
            5.108728205970279,
            5.1962063162295085,
            6.05303155094042,
            6.299047556032811,
            6.476668156128889,
            6.765237951840681,
            7.304940607619773,
            7.7163417156026615,
            7.9196726841942295,
            8.461889970092791,
            8.891173931499548,
            9.400062710192492,
            16.429804437915188,
            16.46462175526685,
            16.868674208202467,
            17.144875592033372,
            21.081541830700946,
            22.154547371919644,
            26.756135771026216,
            27.044500936496817,
            35.148367766846945,
            35.671835901122435,
            35.972171102996136,
            36.14511216170062
        ]
    },
    "born_effective_charge": {
        "avg_abs_trace": 2.16715,
        "tensors": [
            [
                [
                    2.85927,
                    -0.0,
                    0.0105
                ],
                [
                    0.0001,
                    2.84555,
                    -1e-05
                ],
                [
                    -0.00508,
                    0.0,
                    2.48708
                ]
            ],
            [
                [
                    2.85953,
                    -0.0,
                    0.01056
                ],
                [
                    -0.0001,
                    2.84555,
                    1e-05
                ],
                [
                    -0.00532,
                    0.0,
                    2.48708
                ]
            ],
            [
                [
                    2.74251,
                    -0.0,
                    -0.09768
                ],
                [
                    0.0,
                    2.4216,
                    0.0
                ],
                [
                    0.01725,
                    0.0,
                    2.46706
                ]
            ],
            [
                [
                    2.50426,
                    -0.0,
                    0.59752
                ],
                [
                    -1e-05,
                    2.71699,
                    -2e-05
                ],
                [
                    0.64097,
                    0.0,
                    0.65017
                ]
            ],
            [
                [
                    2.50409,
                    -0.0,
                    0.59749
                ],
                [
                    1e-05,
                    2.71699,
                    2e-05
                ],
                [
                    0.6412,
                    0.0,
                    0.65025
                ]
            ],
            [
                [
                    -2.57522,
                    -0.0,
                    -0.4931
                ],
                [
                    5e-05,
                    -1.78169,
                    6e-05
                ],
                [
                    -0.46321,
                    0.0,
                    -1.47591
                ]
            ],
            [
                [
                    -2.07977,
                    0.29724,
                    -0.03312
                ],
                [
                    0.28302,
                    -2.49586,
                    0.08052
                ],
                [
                    -0.0906,
                    0.09216,
                    -1.44746
                ]
            ],
            [
                [
                    -2.07986,
                    -0.29721,
                    -0.03306
                ],
                [
                    -0.28302,
                    -2.49586,
                    -0.08052
                ],
                [
                    -0.09042,
                    -0.09203,
                    -1.44739
                ]
            ],
            [
                [
                    -2.57518,
                    -0.0,
                    -0.49293
                ],
                [
                    -5e-05,
                    -1.78169,
                    -6e-05
                ],
                [
                    -0.46378,
                    0.0,
                    -1.47604
                ]
            ],
            [
                [
                    -2.07977,
                    -0.29724,
                    -0.03312
                ],
                [
                    -0.283,
                    -2.49578,
                    -0.08049
                ],
                [
                    -0.0906,
                    -0.09216,
                    -1.44746
                ]
            ],
            [
                [
                    -2.07986,
                    0.29721,
                    -0.03306
                ],
                [
                    0.283,
                    -2.49578,
                    0.08049
                ],
                [
                    -0.09042,
                    0.09203,
                    -1.44739
                ]
            ]
        ]
    },
    "band_gap": 4.1212,
    "is_direct": false,
    "formula": "Ba2Ca(BO3)2"
}