{
    "mp_id": "mp-556797",
    "nelements": 4,
    "nsites": 30,
    "elements": [
        "K",
        "O",
        "Si",
        "Sn"
    ],
    "structure": {
        "@module": "pymatgen.core.structure",
        "@class": "Structure",
        "charge": null,
        "lattice": {
            "matrix": [
                [
                    5.11282266,
                    2.95188963,
                    4.9473667
                ],
                [
                    -5.11282272,
                    2.95188954,
                    4.9473667
                ],
                [
                    5e-08,
                    -5.90377917,
                    4.9473667
                ]
            ],
            "a": 7.702664811906325,
            "b": 7.7026648172420495,
            "c": 7.702664847466413,
            "alpha": 83.176559520215,
            "beta": 83.17655953497383,
            "gamma": 83.17655900549404,
            "volume": 448.00843674964204
        },
        "sites": [
            {
                "species": [
                    {
                        "element": "K",
                        "occu": 1
                    }
                ],
                "abc": [
                    0.22511195,
                    0.00943112,
                    0.77283705
                ],
                "xyz": [
                    1.1027378730275932,
                    -3.8703140223216854,
                    4.9838788599300035
                ],
                "label": "K",
                "properties": {}
            },
            {
                "species": [
                    {
                        "element": "K",
                        "occu": 1
                    }
                ],
                "abc": [
                    0.50183048,
                    0.50183048,
                    0.50183048
                ],
                "xyz": [
                    -5.018304852431522e-09,
                    0.0,
                    7.448218217391046
                ],
                "label": "K",
                "properties": {}
            },
            {
                "species": [
                    {
                        "element": "K",
                        "occu": 1
                    }
                ],
                "abc": [
                    0.00943112,
                    0.77283705,
                    0.22511195
                ],
                "xyz": [
                    -3.9031591727969994,
                    0.9801579880186613,
                    4.9838788599300035
                ],
                "label": "K",
                "properties": {}
            },
            {
                "species": [
                    {
                        "element": "K",
                        "occu": 1
                    }
                ],
                "abc": [
                    0.77283705,
                    0.22511195,
                    0.00943112
                ],
                "xyz": [
                    2.8004212896956053,
                    2.8901560343030246,
                    4.9838788599300035
                ],
                "label": "K",
                "properties": {}
            },
            {
                "species": [
                    {
                        "element": "Si",
                        "occu": 1
                    }
                ],
                "abc": [
                    0.98051583,
                    0.45253353,
                    0.55417616
                ],
                "xyz": [
                    2.699479868075714,
                    0.9584698344155314,
                    9.831533363038183
                ],
                "label": "Si",
                "properties": {}
            },
            {
                "species": [
                    {
                        "element": "Si",
                        "occu": 1
                    }
                ],
                "abc": [
                    0.45253353,
                    0.55417616,
                    0.98051583
                ],
                "xyz": [
                    -0.5196807261107738,
                    -2.8170530885536005,
                    9.831533363038183
                ],
                "label": "Si",
                "properties": {}
            },
            {
                "species": [
                    {
                        "element": "Si",
                        "occu": 1
                    }
                ],
                "abc": [
                    0.1048853,
                    0.48680535,
                    0.898303
                ],
                "xyz": [
                    -1.9526894702415036,
                    -3.556777089658032,
                    7.371544967221455
                ],
                "label": "Si",
                "properties": {}
            },
            {
                "species": [
                    {
                        "element": "Si",
                        "occu": 1
                    }
                ],
                "abc": [
                    0.898303,
                    0.1048853,
                    0.48680535
                ],
                "xyz": [
                    4.056604013452231,
                    0.08730984509309225,
                    7.371544967221455
                ],
                "label": "Si",
                "properties": {}
            },
            {
                "species": [
                    {
                        "element": "Si",
                        "occu": 1
                    }
                ],
                "abc": [
                    0.55417616,
                    0.98051583,
                    0.45253353
                ],
                "xyz": [
                    -2.1797991618371952,
                    1.8585832541380687,
                    9.831533363038183
                ],
                "label": "Si",
                "properties": {}
            },
            {
                "species": [
                    {
                        "element": "Si",
                        "occu": 1
                    }
                ],
                "abc": [
                    0.48680535,
                    0.898303,
                    0.1048853
                ],
                "xyz": [
                    -2.1039145581106635,
                    3.4694672445649397,
                    7.371544967221454
                ],
                "label": "Si",
                "properties": {}
            },
            {
                "species": [
                    {
                        "element": "Sn",
                        "occu": 1
                    }
                ],
                "abc": [
                    0.25558859,
                    0.25558859,
                    0.25558859
                ],
                "xyz": [
                    -2.555885739894954e-09,
                    -2.220446049250313e-16,
                    3.793471437197859
                ],
                "label": "Sn",
                "properties": {}
            },
            {
                "species": [
                    {
                        "element": "Sn",
                        "occu": 1
                    }
                ],
                "abc": [
                    0.77420585,
                    0.77420585,
                    0.77420585
                ],
                "xyz": [
                    -7.742058354764294e-09,
                    0.0,
                    11.490840723705585
                ],
                "label": "Sn",
                "properties": {}
            },
            {
                "species": [
                    {
                        "element": "O",
                        "occu": 1
                    }
                ],
                "abc": [
                    0.68038425,
                    0.89655417,
                    0.99549201
                ],
                "xyz": [
                    -1.1052384694050366,
                    -1.222216904082722,
                    12.726756647448681
                ],
                "label": "O",
                "properties": {}
            },
            {
                "species": [
                    {
                        "element": "O",
                        "occu": 1
                    }
                ],
                "abc": [
                    0.64695119,
                    0.55576407,
                    0.87457319
                ],
                "xyz": [
                    0.4662235838189545,
                    -1.6130043279444646,
                    10.277107703824615
                ],
                "label": "O",
                "properties": {}
            },
            {
                "species": [
                    {
                        "element": "O",
                        "occu": 1
                    }
                ],
                "abc": [
                    0.36626377,
                    0.08409945,
                    0.07740547
                ],
                "xyz": [
                    1.4426561279637977,
                    0.8724377098523981,
                    2.611065242208623
                ],
                "label": "O",
                "properties": {}
            },
            {
                "species": [
                    {
                        "element": "O",
                        "occu": 1
                    }
                ],
                "abc": [
                    0.41097286,
                    0.15268142,
                    0.45294041
                ],
                "xyz": [
                    1.3205983408021655,
                    -1.010214947513471,
                    5.029466716702823
                ],
                "label": "O",
                "properties": {}
            },
            {
                "species": [
                    {
                        "element": "O",
                        "occu": 1
                    }
                ],
                "abc": [
                    0.3156763,
                    0.51200997,
                    0.84444643
                ],
                "xyz": [
                    -1.0038192253952387,
                    -2.5421867723893796,
                    8.272653637961088
                ],
                "label": "O",
                "properties": {}
            },
            {
                "species": [
                    {
                        "element": "O",
                        "occu": 1
                    }
                ],
                "abc": [
                    0.55576407,
                    0.87457319,
                    0.64695119
                ],
                "xyz": [
                    -1.6300145130774906,
                    0.4027406869563146,
                    10.277107703824615
                ],
                "label": "O",
                "properties": {}
            },
            {
                "species": [
                    {
                        "element": "O",
                        "occu": 1
                    }
                ],
                "abc": [
                    0.89655417,
                    0.99549201,
                    0.68038425
                ],
                "xyz": [
                    -0.5058516559937621,
                    1.5682730458827603,
                    12.726756647448681
                ],
                "label": "O",
                "properties": {}
            },
            {
                "species": [
                    {
                        "element": "O",
                        "occu": 1
                    }
                ],
                "abc": [
                    0.08409945,
                    0.07740547,
                    0.36626377
                ],
                "xyz": [
                    0.03422514629844712,
                    -1.6855957244761834,
                    2.611065242208623
                ],
                "label": "O",
                "properties": {}
            },
            {
                "species": [
                    {
                        "element": "O",
                        "occu": 1
                    }
                ],
                "abc": [
                    0.07740547,
                    0.36626377,
                    0.08409945
                ],
                "xyz": [
                    -1.4768812795399315,
                    0.8131580146237853,
                    2.611065242208623
                ],
                "label": "O",
                "properties": {}
            },
            {
                "species": [
                    {
                        "element": "O",
                        "occu": 1
                    }
                ],
                "abc": [
                    0.99549201,
                    0.68038425,
                    0.89655417
                ],
                "xyz": [
                    1.611090099674495,
                    -0.3460561418000383,
                    12.726756647448681
                ],
                "label": "O",
                "properties": {}
            },
            {
                "species": [
                    {
                        "element": "O",
                        "occu": 1
                    }
                ],
                "abc": [
                    0.37515425,
                    0.7500173,
                    0.04308827
                ],
                "xyz": [
                    -1.916608339283337,
                    3.0669985320171333,
                    5.7798097304159946
                ],
                "label": "O",
                "properties": {}
            },
            {
                "species": [
                    {
                        "element": "O",
                        "occu": 1
                    }
                ],
                "abc": [
                    0.45294041,
                    0.41097286,
                    0.15268142
                ],
                "xyz": [
                    0.21457262360038226,
                    1.6487791989028113,
                    5.0294667167028235
                ],
                "label": "O",
                "properties": {}
            },
            {
                "species": [
                    {
                        "element": "O",
                        "occu": 1
                    }
                ],
                "abc": [
                    0.87457319,
                    0.64695119,
                    0.55576407
                ],
                "xyz": [
                    1.1637909084856524,
                    1.21026364098815,
                    10.277107703824615
                ],
                "label": "O",
                "properties": {}
            },
            {
                "species": [
                    {
                        "element": "O",
                        "occu": 1
                    }
                ],
                "abc": [
                    0.7500173,
                    0.04308827,
                    0.37515425
                ],
                "xyz": [
                    3.6144027797682363,
                    0.1263322570133223,
                    5.779809730415994
                ],
                "label": "O",
                "properties": {}
            },
            {
                "species": [
                    {
                        "element": "O",
                        "occu": 1
                    }
                ],
                "abc": [
                    0.15268142,
                    0.45294041,
                    0.41097286
                ],
                "xyz": [
                    -1.535170974568495,
                    -0.6385642513893399,
                    5.029466716702823
                ],
                "label": "O",
                "properties": {}
            },
            {
                "species": [
                    {
                        "element": "O",
                        "occu": 1
                    }
                ],
                "abc": [
                    0.84444643,
                    0.3156763,
                    0.51200997
                ],
                "xyz": [
                    2.7035079092550665,
                    0.4017604320850978,
                    8.272653637961088
                ],
                "label": "O",
                "properties": {}
            },
            {
                "species": [
                    {
                        "element": "O",
                        "occu": 1
                    }
                ],
                "abc": [
                    0.51200997,
                    0.84444643,
                    0.3156763
                ],
                "xyz": [
                    -1.6996887005811538,
                    2.1404263403042822,
                    8.27265363796109
                ],
                "label": "O",
                "properties": {}
            },
            {
                "species": [
                    {
                        "element": "O",
                        "occu": 1
                    }
                ],
                "abc": [
                    0.04308827,
                    0.37515425,
                    0.7500173
                ],
                "xyz": [
                    -1.6977944521674966,
                    -3.1933307890304556,
                    5.7798097304159946
                ],
                "label": "O",
                "properties": {}
            }
        ]
    },
    "spacegroup": {
        "source": "spglib",
        "symbol": "R3",
        "number": 146,
        "point_group": "3",
        "crystal_system": "trigonal",
        "hall": "R 3"
    },
    "dielectric": {
        "epsilon_ionic": [
            [
                4.34936907,
                4.856e-05,
                -3.214e-05
            ],
            [
                4.856e-05,
                4.34940516,
                5.173e-05
            ],
            [
                -3.214e-05,
                5.173e-05,
                5.02453033
            ]
        ],
        "epsilon_ionic_avg": 4.574434853333334,
        "epsilon_ionic_eig": [
            4.3493353059712545,
            4.349438918535428,
            5.02453033549332
        ],
        "epsilon_electronic": [
            [
                2.62149429,
                4.1e-07,
                0.0
            ],
            [
                -4.1e-07,
                2.62149417,
                1.7e-07
            ],
            [
                0.0,
                1.7e-07,
                2.57305216
            ]
        ],
        "epsilon_electronic_avg": 2.6053468733333336,
        "epsilon_electronic_eig": [
            2.621494230000299,
            2.621494230000299,
            2.573052159999403
        ]
    },
    "phonon": {
        "lowest_freq": -0.08625087737841827,
        "frequency": [
            -0.08625087737841827,
            -0.04924237216382653,
            -0.0492423710222887,
            1.6543910800151882,
            1.779599455743327,
            1.779599496943631,
            2.037318414998115,
            2.6549291287726056,
            2.6549291840057476,
            2.8664700451886946,
            2.978221535881637,
            2.9782216015315894,
            3.42278714679905,
            3.4227872110625017,
            3.6247960750111976,
            3.9677734251250607,
            4.171198839600811,
            4.171198962644637,
            4.391832556857304,
            4.457329493409801,
            4.45732959210572,
            4.999518442815982,
            5.261180900006876,
            5.261180992913824,
            5.34207982593527,
            5.533197318940373,
            5.749481880530988,
            5.749481944293289,
            6.242276750281402,
            6.303839280536638,
            6.303839358076727,
            7.084550040864978,
            7.084550109860222,
            7.9662875490267675,
            7.96628767174397,
            8.043417468874303,
            8.343191868806233,
            8.343191912746274,
            9.193773844757631,
            9.193773951090519,
            9.21521931704519,
            9.624219081976898,
            9.971832075826066,
            9.971832271898467,
            10.466578688778386,
            10.617033281447423,
            10.617033350506302,
            10.712884209883129,
            11.170585254694238,
            12.171803173308621,
            12.171803273704645,
            13.707927475328157,
            13.707927733850234,
            14.081008699147592,
            14.37447414080801,
            14.374474370340005,
            14.860494860191173,
            14.948219867433595,
            14.948219883783377,
            15.167784036505525,
            15.229366999763595,
            15.22936714419515,
            15.577959933636102,
            15.577960106213348,
            15.65485515876248,
            16.59030396424349,
            19.60992853548214,
            20.86304450168634,
            20.863044970266326,
            22.005129690926843,
            22.005129746459374,
            23.08811191013753,
            26.791057245863403,
            26.79105733708792,
            26.90775928762937,
            27.66987619957782,
            27.669876773704296,
            27.792572076281044,
            28.086879129422005,
            28.08687973853236,
            28.922038739364346,
            28.922038908370503,
            29.21273552649328,
            29.448954779215633,
            29.44895531865781,
            29.678294733157127,
            29.75879874418954,
            29.77555327703508,
            29.775553892641096,
            31.94679531399106
        ]
    },
    "born_effective_charge": {
        "avg_abs_trace": 2.0572976666666665,
        "tensors": [
            [
                [
                    1.24151,
                    -0.03754,
                    0.10377
                ],
                [
                    -0.03028,
                    1.17835,
                    -0.03076
                ],
                [
                    0.12134,
                    -0.02061,
                    1.19897
                ]
            ],
            [
                [
                    1.13849,
                    0.0019,
                    -1e-05
                ],
                [
                    -0.00181,
                    1.1385,
                    3e-05
                ],
                [
                    0.0,
                    0.0,
                    1.37155
                ]
            ],
            [
                [
                    1.22354,
                    0.04069,
                    -0.07858
                ],
                [
                    0.04794,
                    1.19638,
                    -0.07446
                ],
                [
                    -0.07852,
                    -0.09478,
                    1.19897
                ]
            ],
            [
                [
                    1.1648,
                    -0.01401,
                    -0.02522
                ],
                [
                    -0.0068,
                    1.25511,
                    0.10526
                ],
                [
                    -0.04282,
                    0.11539,
                    1.19897
                ]
            ],
            [
                [
                    3.10423,
                    0.26612,
                    -0.48872
                ],
                [
                    0.33715,
                    2.87946,
                    -0.07435
                ],
                [
                    -0.39172,
                    -0.41055,
                    3.02377
                ]
            ],
            [
                [
                    2.67443,
                    -0.08899,
                    0.17997
                ],
                [
                    -0.01799,
                    3.30927,
                    0.46045
                ],
                [
                    -0.15969,
                    0.54451,
                    3.02377
                ]
            ],
            [
                [
                    3.14112,
                    -0.44664,
                    0.17445
                ],
                [
                    -0.17294,
                    2.76185,
                    -0.24011
                ],
                [
                    0.6667,
                    -0.20063,
                    3.0827
                ]
            ],
            [
                [
                    2.58838,
                    -0.14618,
                    0.12072
                ],
                [
                    0.12749,
                    3.31458,
                    0.27113
                ],
                [
                    -0.1596,
                    0.6777,
                    3.0827
                ]
            ],
            [
                [
                    3.19688,
                    -0.28364,
                    0.30876
                ],
                [
                    -0.21265,
                    2.7868,
                    -0.38607
                ],
                [
                    0.5514,
                    -0.13396,
                    3.02377
                ]
            ],
            [
                [
                    3.12493,
                    0.18226,
                    -0.29518
                ],
                [
                    0.45595,
                    2.77803,
                    -0.03099
                ],
                [
                    -0.5071,
                    -0.47707,
                    3.0827
                ]
            ],
            [
                [
                    4.26094,
                    -0.00697,
                    -2e-05
                ],
                [
                    0.00699,
                    4.26095,
                    -1e-05
                ],
                [
                    0.0,
                    0.0,
                    3.51085
                ]
            ],
            [
                [
                    4.22976,
                    0.28901,
                    1e-05
                ],
                [
                    -0.28906,
                    4.22976,
                    2e-05
                ],
                [
                    0.0,
                    0.0,
                    3.60164
                ]
            ],
            [
                [
                    -1.75144,
                    -0.70323,
                    0.17234
                ],
                [
                    -0.71255,
                    -1.93181,
                    0.04629
                ],
                [
                    0.32517,
                    0.25069,
                    -1.48129
                ]
            ],
            [
                [
                    -1.51891,
                    -0.34561,
                    -0.08337
                ],
                [
                    -0.31647,
                    -2.25983,
                    -0.57586
                ],
                [
                    -0.06202,
                    -0.61312,
                    -1.40264
                ]
            ],
            [
                [
                    -2.47798,
                    -0.03228,
                    0.40524
                ],
                [
                    -0.08827,
                    -1.21631,
                    0.15483
                ],
                [
                    0.53799,
                    0.21958,
                    -1.45034
                ]
            ],
            [
                [
                    -2.4833,
                    0.33645,
                    -0.24533
                ],
                [
                    0.25953,
                    -1.32654,
                    0.16814
                ],
                [
                    -0.40235,
                    0.19343,
                    -1.36103
                ]
            ],
            [
                [
                    -1.41562,
                    -0.21137,
                    -0.63124
                ],
                [
                    -0.24774,
                    -1.45742,
                    -0.24264
                ],
                [
                    -0.70932,
                    -0.2736,
                    -2.18234
                ]
            ],
            [
                [
                    -1.78793,
                    0.4718,
                    -0.45704
                ],
                [
                    0.50087,
                    -1.99074,
                    0.36014
                ],
                [
                    -0.49997,
                    0.36027,
                    -1.40264
                ]
            ],
            [
                [
                    -1.2737,
                    0.43671,
                    -0.04603
                ],
                [
                    0.42737,
                    -2.40957,
                    -0.17247
                ],
                [
                    0.05452,
                    -0.40695,
                    -1.48129
                ]
            ],
            [
                [
                    -1.47949,
                    -0.48807,
                    -0.06844
                ],
                [
                    -0.54412,
                    -2.21473,
                    -0.42836
                ],
                [
                    -0.07883,
                    -0.57571,
                    -1.45034
                ]
            ],
            [
                [
                    -1.58397,
                    0.6046,
                    -0.33676
                ],
                [
                    0.54842,
                    -2.11048,
                    0.2735
                ],
                [
                    -0.45916,
                    0.35612,
                    -1.45034
                ]
            ],
            [
                [
                    -2.49973,
                    0.2805,
                    -0.12632
                ],
                [
                    0.27114,
                    -1.18351,
                    0.1261
                ],
                [
                    -0.37969,
                    0.15626,
                    -1.48129
                ]
            ],
            [
                [
                    -1.67974,
                    0.02962,
                    0.57929
                ],
                [
                    0.01663,
                    -1.20706,
                    -0.35429
                ],
                [
                    0.7015,
                    -0.28664,
                    -2.25581
                ]
            ],
            [
                [
                    -1.35765,
                    0.39031,
                    -0.02291
                ],
                [
                    0.31337,
                    -2.45219,
                    -0.29654
                ],
                [
                    0.03365,
                    -0.44516,
                    -1.36103
                ]
            ],
            [
                [
                    -2.36136,
                    -0.16979,
                    0.54042
                ],
                [
                    -0.14077,
                    -1.41745,
                    0.21575
                ],
                [
                    0.56199,
                    0.25285,
                    -1.40264
                ]
            ],
            [
                [
                    -1.34527,
                    -0.20976,
                    -0.59648
                ],
                [
                    -0.22274,
                    -1.54155,
                    -0.32457
                ],
                [
                    -0.59899,
                    -0.4642,
                    -2.25581
                ]
            ],
            [
                [
                    -1.87376,
                    -0.61142,
                    0.26824
                ],
                [
                    -0.68842,
                    -1.93606,
                    0.12841
                ],
                [
                    0.36869,
                    0.25172,
                    -1.36103
                ]
            ],
            [
                [
                    -1.64577,
                    0.11487,
                    0.52582
                ],
                [
                    0.07848,
                    -1.22731,
                    -0.42535
                ],
                [
                    0.5916,
                    -0.47749,
                    -2.18234
                ]
            ],
            [
                [
                    -1.24821,
                    0.15108,
                    0.10545
                ],
                [
                    0.11467,
                    -1.62488,
                    0.66794
                ],
                [
                    0.11772,
                    0.75109,
                    -2.18234
                ]
            ],
            [
                [
                    -1.30516,
                    0.19959,
                    0.01717
                ],
                [
                    0.1866,
                    -1.5816,
                    0.67884
                ],
                [
                    -0.10251,
                    0.75084,
                    -2.25581
                ]
            ]
        ]
    },
    "band_gap": 4.0127,
    "is_direct": false,
    "formula": "K2Si3SnO9"
}