{
    "mp_id": "mp-560767",
    "nelements": 4,
    "nsites": 12,
    "elements": [
        "K",
        "Na",
        "O",
        "Ti"
    ],
    "structure": {
        "@module": "pymatgen.core.structure",
        "@class": "Structure",
        "charge": null,
        "lattice": {
            "matrix": [
                [
                    2.88247291,
                    -5.51568676,
                    -0.00011909
                ],
                [
                    2.88247291,
                    5.51568676,
                    -0.00011909
                ],
                [
                    -0.69124116,
                    0.0,
                    5.46437736
                ]
            ],
            "a": 6.223459691000304,
            "b": 6.223459691000304,
            "c": 5.507924679383217,
            "alpha": 93.33337692597995,
            "beta": 93.33337692597995,
            "gamma": 124.81727114717573,
            "volume": 173.75337050526488
        },
        "sites": [
            {
                "species": [
                    {
                        "element": "K",
                        "occu": 1
                    }
                ],
                "abc": [
                    0.73798165,
                    0.26201835,
                    0.75
                ],
                "xyz": [
                    2.36404204,
                    -2.6252644720559086,
                    4.09816393
                ],
                "label": "K",
                "properties": {}
            },
            {
                "species": [
                    {
                        "element": "K",
                        "occu": 1
                    }
                ],
                "abc": [
                    0.26201835,
                    0.73798165,
                    0.25
                ],
                "xyz": [
                    2.70966262,
                    2.6252644720559086,
                    1.36597525
                ],
                "label": "K",
                "properties": {}
            },
            {
                "species": [
                    {
                        "element": "Na",
                        "occu": 1
                    }
                ],
                "abc": [
                    0.42342722,
                    0.57657278,
                    0.75
                ],
                "xyz": [
                    2.36404204,
                    0.8447029376447857,
                    4.09816393
                ],
                "label": "Na",
                "properties": {}
            },
            {
                "species": [
                    {
                        "element": "Na",
                        "occu": 1
                    }
                ],
                "abc": [
                    0.57657278,
                    0.42342722,
                    0.25
                ],
                "xyz": [
                    2.70966262,
                    -0.8447029376447857,
                    1.36597525
                ],
                "label": "Na",
                "properties": {}
            },
            {
                "species": [
                    {
                        "element": "Ti",
                        "occu": 1
                    }
                ],
                "abc": [
                    0.94646707,
                    0.05353293,
                    0.25
                ],
                "xyz": [
                    2.70966262,
                    -4.925145013549987,
                    1.36597525
                ],
                "label": "Ti",
                "properties": {}
            },
            {
                "species": [
                    {
                        "element": "Ti",
                        "occu": 1
                    }
                ],
                "abc": [
                    0.05353293,
                    0.94646707,
                    0.75
                ],
                "xyz": [
                    2.36404204,
                    4.925145013549987,
                    4.09816393
                ],
                "label": "Ti",
                "properties": {}
            },
            {
                "species": [
                    {
                        "element": "O",
                        "occu": 1
                    }
                ],
                "abc": [
                    0.19399261,
                    0.24465462,
                    0.99826851
                ],
                "xyz": [
                    0.5743444746776677,
                    0.2794357777919876,
                    5.454863606746313
                ],
                "label": "O",
                "properties": {}
            },
            {
                "species": [
                    {
                        "element": "O",
                        "occu": 1
                    }
                ],
                "abc": [
                    0.24465462,
                    0.19399261,
                    0.49826851
                ],
                "xyz": [
                    0.9199650546776678,
                    -0.2794357777919876,
                    2.722674926746313
                ],
                "label": "O",
                "properties": {}
            },
            {
                "species": [
                    {
                        "element": "O",
                        "occu": 1
                    }
                ],
                "abc": [
                    0.75534538,
                    0.80600739,
                    0.50173149
                ],
                "xyz": [
                    4.153739605322332,
                    0.2794357777919876,
                    2.741464253253687
                ],
                "label": "O",
                "properties": {}
            },
            {
                "species": [
                    {
                        "element": "O",
                        "occu": 1
                    }
                ],
                "abc": [
                    0.80600739,
                    0.75534538,
                    0.00173149
                ],
                "xyz": [
                    4.499360185322332,
                    -0.2794357777919876,
                    0.009275573253687101
                ],
                "label": "O",
                "properties": {}
            },
            {
                "species": [
                    {
                        "element": "O",
                        "occu": 1
                    }
                ],
                "abc": [
                    0.21792965,
                    0.78207035,
                    0.75
                ],
                "xyz": [
                    2.36404204,
                    3.1116233897671326,
                    4.09816393
                ],
                "label": "O",
                "properties": {}
            },
            {
                "species": [
                    {
                        "element": "O",
                        "occu": 1
                    }
                ],
                "abc": [
                    0.78207035,
                    0.21792965,
                    0.25
                ],
                "xyz": [
                    2.70966262,
                    -3.1116233897671326,
                    1.36597525
                ],
                "label": "O",
                "properties": {}
            }
        ]
    },
    "spacegroup": {
        "source": "spglib",
        "symbol": "C2/c",
        "number": 15,
        "point_group": "2/m",
        "crystal_system": "monoclinic",
        "hall": "-C 2yc"
    },
    "dielectric": {
        "epsilon_ionic": [
            [
                5.13242093,
                -0.0,
                -0.87687084
            ],
            [
                -0.0,
                5.05021824,
                -1e-08
            ],
            [
                -0.87687084,
                -1e-08,
                9.55687916
            ]
        ],
        "epsilon_ionic_avg": 6.579839443333333,
        "epsilon_ionic_eig": [
            9.724326520341972,
            4.964973569658029,
            5.05021824
        ],
        "epsilon_electronic": [
            [
                2.86112523,
                0.0,
                -0.12516868
            ],
            [
                0.0,
                3.27346676,
                0.0
            ],
            [
                -0.12517701,
                0.0,
                3.84786615
            ]
        ],
        "epsilon_electronic_avg": 3.327486046666667,
        "epsilon_electronic_eig": [
            2.8454940673025293,
            3.8634973126974708,
            3.27346676
        ]
    },
    "phonon": {
        "lowest_freq": -0.1487358438640325,
        "frequency": [
            -0.1487358438640325,
            -0.043713383111327546,
            -0.016624337280079907,
            1.1607240460693633,
            2.925027259395926,
            3.0460277452323288,
            3.5815735887349147,
            3.764050332085146,
            3.913567879288715,
            4.033793144735448,
            4.499595125945482,
            5.345453211922425,
            6.054382720300818,
            6.242942188197111,
            6.490648738400562,
            6.692514207556265,
            6.893016417614437,
            7.112153938846586,
            7.335026415037767,
            7.7291369516280515,
            8.096607863780806,
            8.741195552791575,
            9.419990458828783,
            9.450103785038033,
            11.280177723203705,
            12.208561846265145,
            12.38667884936957,
            12.501890890187886,
            13.558934964674222,
            15.570716633817716,
            18.171240386440417,
            18.803619578242397,
            19.01190962409631,
            19.74540603679264,
            22.650368395427833,
            23.751066667183782
        ]
    },
    "born_effective_charge": {
        "avg_abs_trace": 1.9633702777777782,
        "tensors": [
            [
                [
                    1.18515,
                    1e-05,
                    0.03096
                ],
                [
                    0.0,
                    1.20315,
                    0.0
                ],
                [
                    0.03456,
                    -0.00012,
                    1.18303
                ]
            ],
            [
                [
                    1.18515,
                    -1e-05,
                    0.03096
                ],
                [
                    -0.0,
                    1.20307,
                    0.0
                ],
                [
                    0.03456,
                    0.00012,
                    1.18303
                ]
            ],
            [
                [
                    1.30503,
                    -3e-05,
                    0.0128
                ],
                [
                    0.0,
                    1.07497,
                    0.0
                ],
                [
                    0.03962,
                    -1e-05,
                    0.95582
                ]
            ],
            [
                [
                    1.30503,
                    3e-05,
                    0.0128
                ],
                [
                    0.0,
                    1.07496,
                    0.0
                ],
                [
                    0.03962,
                    1e-05,
                    0.95582
                ]
            ],
            [
                [
                    2.26395,
                    -0.00019,
                    -0.50463
                ],
                [
                    0.0,
                    3.19704,
                    0.0
                ],
                [
                    -0.61143,
                    7e-05,
                    5.30228
                ]
            ],
            [
                [
                    2.26395,
                    0.00019,
                    -0.50463
                ],
                [
                    0.0,
                    3.19697,
                    0.0
                ],
                [
                    -0.61143,
                    -7e-05,
                    5.30228
                ]
            ],
            [
                [
                    -1.79005,
                    -0.12508,
                    0.19389
                ],
                [
                    -0.24032,
                    -1.2213,
                    -0.54944
                ],
                [
                    0.17653,
                    -0.91612,
                    -3.08505
                ]
            ],
            [
                [
                    -1.79005,
                    0.12508,
                    0.19389
                ],
                [
                    0.24016,
                    -1.22131,
                    0.54946
                ],
                [
                    0.17653,
                    0.91612,
                    -3.08505
                ]
            ],
            [
                [
                    -1.79001,
                    0.12462,
                    0.19452
                ],
                [
                    0.24032,
                    -1.2213,
                    0.54944
                ],
                [
                    0.17617,
                    0.91526,
                    -3.08473
                ]
            ],
            [
                [
                    -1.79001,
                    -0.12462,
                    0.19452
                ],
                [
                    -0.24016,
                    -1.22131,
                    -0.54946
                ],
                [
                    0.17617,
                    -0.91526,
                    -3.08473
                ]
            ],
            [
                [
                    -1.17407,
                    -0.00011,
                    0.07245
                ],
                [
                    -0.0,
                    -3.03248,
                    0.0
                ],
                [
                    0.18455,
                    -0.00018,
                    -1.27134
                ]
            ],
            [
                [
                    -1.17407,
                    0.00011,
                    0.07245
                ],
                [
                    0.0,
                    -3.03245,
                    0.0
                ],
                [
                    0.18455,
                    0.00018,
                    -1.27134
                ]
            ]
        ]
    },
    "band_gap": 3.8175999999999997,
    "is_direct": false,
    "formula": "KNaTiO3"
}