{
    "mp_id": "mp-549589",
    "nelements": 4,
    "nsites": 8,
    "elements": [
        "As",
        "La",
        "O",
        "Zn"
    ],
    "structure": {
        "@module": "pymatgen.core.structure",
        "@class": "Structure",
        "charge": null,
        "lattice": {
            "matrix": [
                [
                    4.04612365,
                    0.0,
                    0.0
                ],
                [
                    0.0,
                    4.04612365,
                    0.0
                ],
                [
                    0.0,
                    0.0,
                    8.94086947
                ]
            ],
            "a": 4.04612365,
            "b": 4.04612365,
            "c": 8.94086947,
            "alpha": 90.0,
            "beta": 90.0,
            "gamma": 90.0,
            "volume": 146.37201651908103
        },
        "sites": [
            {
                "species": [
                    {
                        "element": "La",
                        "occu": 1
                    }
                ],
                "abc": [
                    0.5,
                    0.0,
                    0.13574196
                ],
                "xyz": [
                    2.023061825,
                    0.0,
                    1.2136511459619612
                ],
                "label": "La",
                "properties": {}
            },
            {
                "species": [
                    {
                        "element": "La",
                        "occu": 1
                    }
                ],
                "abc": [
                    0.0,
                    0.5,
                    0.86425804
                ],
                "xyz": [
                    0.0,
                    2.023061825,
                    7.727218324038039
                ],
                "label": "La",
                "properties": {}
            },
            {
                "species": [
                    {
                        "element": "Zn",
                        "occu": 1
                    }
                ],
                "abc": [
                    0.5,
                    0.5,
                    0.5
                ],
                "xyz": [
                    2.023061825,
                    2.023061825,
                    4.470434735
                ],
                "label": "Zn",
                "properties": {}
            },
            {
                "species": [
                    {
                        "element": "Zn",
                        "occu": 1
                    }
                ],
                "abc": [
                    0.0,
                    0.0,
                    0.5
                ],
                "xyz": [
                    0.0,
                    0.0,
                    4.470434735
                ],
                "label": "Zn",
                "properties": {}
            },
            {
                "species": [
                    {
                        "element": "As",
                        "occu": 1
                    }
                ],
                "abc": [
                    0.0,
                    0.5,
                    0.32937313
                ],
                "xyz": [
                    0.0,
                    2.023061825,
                    2.9448821622553414
                ],
                "label": "As",
                "properties": {}
            },
            {
                "species": [
                    {
                        "element": "As",
                        "occu": 1
                    }
                ],
                "abc": [
                    0.5,
                    0.0,
                    0.67062687
                ],
                "xyz": [
                    2.023061825,
                    0.0,
                    5.9959873077446595
                ],
                "label": "As",
                "properties": {}
            },
            {
                "species": [
                    {
                        "element": "O",
                        "occu": 1
                    }
                ],
                "abc": [
                    0.5,
                    0.5,
                    0.0
                ],
                "xyz": [
                    2.023061825,
                    2.023061825,
                    0.0
                ],
                "label": "O",
                "properties": {}
            },
            {
                "species": [
                    {
                        "element": "O",
                        "occu": 1
                    }
                ],
                "abc": [
                    0.0,
                    0.0,
                    0.0
                ],
                "xyz": [
                    0.0,
                    0.0,
                    0.0
                ],
                "label": "O",
                "properties": {}
            }
        ]
    },
    "spacegroup": {
        "source": "spglib",
        "symbol": "P4/nmm",
        "number": 129,
        "point_group": "4/mmm",
        "crystal_system": "tetragonal",
        "hall": "P 4ab 2ab -1ab"
    },
    "dielectric": {
        "epsilon_ionic": [
            [
                14.84311293,
                3.1e-07,
                -1e-08
            ],
            [
                3.1e-07,
                14.72755711,
                -1e-08
            ],
            [
                -1e-08,
                -1e-08,
                12.69843706
            ]
        ],
        "epsilon_ionic_avg": 14.089702366666666,
        "epsilon_ionic_eig": [
            14.843112930000837,
            14.727557109999164,
            12.69843706
        ],
        "epsilon_electronic": [
            [
                10.75272116,
                0.0,
                0.0
            ],
            [
                0.0,
                10.75272116,
                0.0
            ],
            [
                0.0,
                0.0,
                8.18786951
            ]
        ],
        "epsilon_electronic_avg": 9.89777061,
        "epsilon_electronic_eig": [
            10.75272116,
            10.75272116,
            8.18786951
        ]
    },
    "phonon": {
        "lowest_freq": -0.07277938048177147,
        "frequency": [
            -0.07277938048177147,
            -0.07277938048177147,
            -0.0254455538332431,
            2.1032598653690147,
            2.1032598653690147,
            2.578874667632472,
            2.823212710217875,
            2.823212710217875,
            3.7325018969282358,
            3.7325018969282358,
            4.0405003042588925,
            4.774081418824202,
            4.774081418824202,
            5.3757389540280744,
            5.553630100803009,
            5.553630100803009,
            5.845100745404056,
            6.606003642422197,
            8.961120241624455,
            9.19077444904929,
            9.19077444904929,
            12.679563898038328,
            12.913211698827897,
            12.913211698827897
        ]
    },
    "born_effective_charge": {
        "avg_abs_trace": 3.2219220833333333,
        "tensors": [
            [
                [
                    4.69219,
                    0.0,
                    0.0005
                ],
                [
                    0.0,
                    4.68239,
                    0.00035
                ],
                [
                    0.0,
                    0.0,
                    5.28323
                ]
            ],
            [
                [
                    4.69219,
                    0.0,
                    -0.0005
                ],
                [
                    0.0,
                    4.68239,
                    -0.00035
                ],
                [
                    0.0,
                    0.0,
                    5.28317
                ]
            ],
            [
                [
                    1.96661,
                    0.0,
                    -0.00047
                ],
                [
                    0.0,
                    1.96139,
                    0.00027
                ],
                [
                    0.0,
                    0.0,
                    0.74575
                ]
            ],
            [
                [
                    1.96661,
                    0.0,
                    0.00047
                ],
                [
                    0.0,
                    1.96139,
                    -0.00027
                ],
                [
                    0.0,
                    0.0,
                    0.74575
                ]
            ],
            [
                [
                    -3.37522,
                    0.0,
                    0.00152
                ],
                [
                    0.0,
                    -3.34972,
                    0.00123
                ],
                [
                    0.0,
                    0.0,
                    -1.94748
                ]
            ],
            [
                [
                    -3.37522,
                    0.0,
                    -0.00152
                ],
                [
                    0.0,
                    -3.34972,
                    -0.00123
                ],
                [
                    0.0,
                    0.0,
                    -1.94739
                ]
            ],
            [
                [
                    -3.28358,
                    0.0,
                    0.00059
                ],
                [
                    0.0,
                    -3.29406,
                    -0.00051
                ],
                [
                    0.0,
                    0.0,
                    -4.08152
                ]
            ],
            [
                [
                    -3.28358,
                    0.0,
                    -0.00059
                ],
                [
                    0.0,
                    -3.29406,
                    0.00051
                ],
                [
                    0.0,
                    0.0,
                    -4.08152
                ]
            ]
        ]
    },
    "band_gap": 0.5970000000000004,
    "is_direct": true,
    "formula": "LaZnAsO"
}