{
    "mp_id": "mp-5854",
    "nelements": 3,
    "nsites": 16,
    "elements": [
        "Ga",
        "Li",
        "O"
    ],
    "structure": {
        "@module": "pymatgen.core.structure",
        "@class": "Structure",
        "charge": null,
        "lattice": {
            "matrix": [
                [
                    5.40240746,
                    0.0,
                    0.0
                ],
                [
                    0.0,
                    6.37472139,
                    0.0
                ],
                [
                    0.0,
                    0.0,
                    5.01951979
                ]
            ],
            "a": 5.40240746,
            "b": 6.37472139,
            "c": 5.01951979,
            "alpha": 90.0,
            "beta": 90.0,
            "gamma": 90.0,
            "volume": 172.8664509351376
        },
        "sites": [
            {
                "species": [
                    {
                        "element": "Li",
                        "occu": 1
                    }
                ],
                "abc": [
                    0.58197019,
                    0.87569462,
                    2.02e-05
                ],
                "xyz": [
                    3.144040095953618,
                    5.582309225221922,
                    0.00010139429975800001
                ],
                "label": "Li",
                "properties": {}
            },
            {
                "species": [
                    {
                        "element": "Li",
                        "occu": 1
                    }
                ],
                "abc": [
                    0.91802981,
                    0.37569462,
                    0.5000202
                ],
                "xyz": [
                    4.959571094046383,
                    2.394948530221922,
                    2.5098612892997583
                ],
                "label": "Li",
                "properties": {}
            },
            {
                "species": [
                    {
                        "element": "Li",
                        "occu": 1
                    }
                ],
                "abc": [
                    0.08197019,
                    0.62430538,
                    2.02e-05
                ],
                "xyz": [
                    0.4428363659536174,
                    3.9797728597780786,
                    0.00010139429975800001
                ],
                "label": "Li",
                "properties": {}
            },
            {
                "species": [
                    {
                        "element": "Li",
                        "occu": 1
                    }
                ],
                "abc": [
                    0.41802981,
                    0.12430538,
                    0.5000202
                ],
                "xyz": [
                    2.2583673640463826,
                    0.7924121647780782,
                    2.5098612892997583
                ],
                "label": "Li",
                "properties": {}
            },
            {
                "species": [
                    {
                        "element": "Ga",
                        "occu": 1
                    }
                ],
                "abc": [
                    0.58218833,
                    0.37387631,
                    0.00422999
                ],
                "xyz": [
                    3.145218577116942,
                    2.383357310571271,
                    0.021232518516502104
                ],
                "label": "Ga",
                "properties": {}
            },
            {
                "species": [
                    {
                        "element": "Ga",
                        "occu": 1
                    }
                ],
                "abc": [
                    0.41781167,
                    0.62612369,
                    0.50422999
                ],
                "xyz": [
                    2.2571888828830584,
                    3.9913640794287293,
                    2.5309924135165023
                ],
                "label": "Ga",
                "properties": {}
            },
            {
                "species": [
                    {
                        "element": "Ga",
                        "occu": 1
                    }
                ],
                "abc": [
                    0.91781167,
                    0.87387631,
                    0.50422999
                ],
                "xyz": [
                    4.958392612883058,
                    5.570718005571271,
                    2.5309924135165023
                ],
                "label": "Ga",
                "properties": {}
            },
            {
                "species": [
                    {
                        "element": "Ga",
                        "occu": 1
                    }
                ],
                "abc": [
                    0.08218833,
                    0.12612369,
                    0.00422999
                ],
                "xyz": [
                    0.44401484711694184,
                    0.8040033844287292,
                    0.021232518516502104
                ],
                "label": "Ga",
                "properties": {}
            },
            {
                "species": [
                    {
                        "element": "O",
                        "occu": 1
                    }
                ],
                "abc": [
                    0.06991131,
                    0.1136182,
                    0.37453132
                ],
                "xyz": [
                    0.3776893826823726,
                    0.724284369833298,
                    1.879967372714823
                ],
                "label": "O",
                "properties": {}
            },
            {
                "species": [
                    {
                        "element": "O",
                        "occu": 1
                    }
                ],
                "abc": [
                    0.56991131,
                    0.3863818,
                    0.37453132
                ],
                "xyz": [
                    3.078893112682372,
                    2.463076325166702,
                    1.879967372714823
                ],
                "label": "O",
                "properties": {}
            },
            {
                "species": [
                    {
                        "element": "O",
                        "occu": 1
                    }
                ],
                "abc": [
                    0.93008869,
                    0.8863818,
                    0.87453132
                ],
                "xyz": [
                    5.024718077317628,
                    5.650437020166702,
                    4.389727267714823
                ],
                "label": "O",
                "properties": {}
            },
            {
                "species": [
                    {
                        "element": "O",
                        "occu": 1
                    }
                ],
                "abc": [
                    0.43008869,
                    0.6136182,
                    0.87453132
                ],
                "xyz": [
                    2.3235143473176274,
                    3.9116450648332983,
                    4.389727267714823
                ],
                "label": "O",
                "properties": {}
            },
            {
                "species": [
                    {
                        "element": "O",
                        "occu": 1
                    }
                ],
                "abc": [
                    0.40891479,
                    0.13710913,
                    0.8944185
                ],
                "xyz": [
                    2.209124312000333,
                    0.8740325037752907,
                    4.489551361292115
                ],
                "label": "O",
                "properties": {}
            },
            {
                "species": [
                    {
                        "element": "O",
                        "occu": 1
                    }
                ],
                "abc": [
                    0.59108521,
                    0.86289087,
                    0.3944185
                ],
                "xyz": [
                    3.193283147999667,
                    5.50068888622471,
                    1.9797914662921152
                ],
                "label": "O",
                "properties": {}
            },
            {
                "species": [
                    {
                        "element": "O",
                        "occu": 1
                    }
                ],
                "abc": [
                    0.09108521,
                    0.63710913,
                    0.3944185
                ],
                "xyz": [
                    0.4920794179996666,
                    4.061393198775291,
                    1.9797914662921152
                ],
                "label": "O",
                "properties": {}
            },
            {
                "species": [
                    {
                        "element": "O",
                        "occu": 1
                    }
                ],
                "abc": [
                    0.90891479,
                    0.36289087,
                    0.8944185
                ],
                "xyz": [
                    4.910328042000334,
                    2.3133281912247092,
                    4.489551361292115
                ],
                "label": "O",
                "properties": {}
            }
        ]
    },
    "spacegroup": {
        "source": "spglib",
        "symbol": "Pna2_1",
        "number": 33,
        "point_group": "mm2",
        "crystal_system": "orthorhombic",
        "hall": "P 2c -2n"
    },
    "dielectric": {
        "epsilon_ionic": [
            [
                3.64493138,
                -0.0,
                -8.2e-07
            ],
            [
                -0.0,
                3.16099169,
                5e-07
            ],
            [
                -8.2e-07,
                5e-07,
                4.16217551
            ]
        ],
        "epsilon_ionic_avg": 3.6560328599999994,
        "epsilon_ionic_eig": [
            3.644931379998701,
            4.162175510001548,
            3.1609916899997494
        ],
        "epsilon_electronic": [
            [
                3.34648057,
                0.0,
                0.0
            ],
            [
                0.0,
                3.2179478,
                0.0
            ],
            [
                0.0,
                0.0,
                3.34578542
            ]
        ],
        "epsilon_electronic_avg": 3.3034045966666667,
        "epsilon_electronic_eig": [
            3.34648057,
            3.2179478,
            3.34578542
        ]
    },
    "phonon": {
        "lowest_freq": -0.08412340250295822,
        "frequency": [
            -0.08412340250295822,
            -0.05535134377037114,
            -0.055229493833821974,
            3.7813200738077026,
            3.8840415230419842,
            4.142270494412929,
            4.48889063338067,
            5.818273710205479,
            5.956327042546726,
            6.243354111848626,
            7.064227701291969,
            7.1779179208738535,
            7.185617896818285,
            8.300941159336269,
            8.61802050373171,
            8.736796698058175,
            9.133706100863936,
            9.141536844443284,
            9.312674703897128,
            10.521539924663509,
            12.082095788801734,
            12.137598195830813,
            12.472282030042816,
            12.503082006136678,
            12.517173512745225,
            12.86782640269713,
            13.162299745751346,
            13.409783954846631,
            13.458331819652903,
            13.605022869274247,
            13.68263078380262,
            13.83935815434256,
            14.49460143918465,
            14.508008150394117,
            14.713360675817608,
            14.71670915728404,
            15.21046844065443,
            15.672507124107348,
            16.238663274122878,
            16.421878765480095,
            18.410530737188978,
            18.71732400996799,
            18.75175559663336,
            18.770949068471324,
            18.835787985703007,
            20.36983820406379,
            20.53172689883558,
            20.596608044901398
        ]
    },
    "born_effective_charge": {
        "avg_abs_trace": 1.8320308333333335,
        "tensors": [
            [
                [
                    0.98257,
                    -0.07688,
                    0.01379
                ],
                [
                    0.03291,
                    1.0526,
                    -0.05074
                ],
                [
                    -0.04234,
                    0.05524,
                    1.03333
                ]
            ],
            [
                [
                    0.98257,
                    0.07688,
                    -0.01379
                ],
                [
                    -0.03291,
                    1.0526,
                    -0.05074
                ],
                [
                    0.04234,
                    0.05524,
                    1.03333
                ]
            ],
            [
                [
                    0.98257,
                    0.07688,
                    0.01379
                ],
                [
                    -0.03291,
                    1.0526,
                    0.05074
                ],
                [
                    -0.04234,
                    -0.05524,
                    1.03333
                ]
            ],
            [
                [
                    0.98257,
                    -0.07688,
                    -0.01379
                ],
                [
                    0.03291,
                    1.0526,
                    0.05074
                ],
                [
                    0.04234,
                    -0.05524,
                    1.03333
                ]
            ],
            [
                [
                    2.71574,
                    0.27545,
                    -0.0477
                ],
                [
                    -0.21252,
                    2.49946,
                    0.27033
                ],
                [
                    0.13754,
                    -0.24138,
                    2.70849
                ]
            ],
            [
                [
                    2.71574,
                    0.27546,
                    0.0477
                ],
                [
                    -0.21252,
                    2.49946,
                    -0.27033
                ],
                [
                    -0.13754,
                    0.24138,
                    2.70849
                ]
            ],
            [
                [
                    2.71574,
                    -0.27546,
                    0.0477
                ],
                [
                    0.21252,
                    2.49946,
                    0.27033
                ],
                [
                    -0.13754,
                    -0.24138,
                    2.70849
                ]
            ],
            [
                [
                    2.71574,
                    -0.27545,
                    -0.0477
                ],
                [
                    0.21252,
                    2.49946,
                    -0.27033
                ],
                [
                    0.13754,
                    0.24138,
                    2.70849
                ]
            ],
            [
                [
                    -1.4928,
                    -0.06729,
                    0.1024
                ],
                [
                    -0.24404,
                    -1.77998,
                    0.29901
                ],
                [
                    0.13645,
                    0.30535,
                    -2.2113
                ]
            ],
            [
                [
                    -1.4928,
                    0.06729,
                    0.1024
                ],
                [
                    0.24404,
                    -1.77998,
                    -0.29901
                ],
                [
                    0.13645,
                    -0.30535,
                    -2.2113
                ]
            ],
            [
                [
                    -1.4928,
                    -0.0673,
                    -0.1024
                ],
                [
                    -0.24404,
                    -1.77998,
                    -0.29901
                ],
                [
                    -0.13645,
                    -0.30535,
                    -2.2113
                ]
            ],
            [
                [
                    -1.4928,
                    0.0673,
                    -0.1024
                ],
                [
                    0.24404,
                    -1.77998,
                    0.29901
                ],
                [
                    -0.13645,
                    0.30535,
                    -2.2113
                ]
            ],
            [
                [
                    -2.20551,
                    -0.29789,
                    0.06481
                ],
                [
                    -0.38186,
                    -1.77207,
                    -0.09667
                ],
                [
                    0.01625,
                    -0.09073,
                    -1.53052
                ]
            ],
            [
                [
                    -2.20551,
                    -0.29789,
                    -0.06481
                ],
                [
                    -0.38186,
                    -1.77207,
                    0.09667
                ],
                [
                    -0.01625,
                    0.09073,
                    -1.53052
                ]
            ],
            [
                [
                    -2.20551,
                    0.29789,
                    -0.06481
                ],
                [
                    0.38186,
                    -1.77207,
                    -0.09667
                ],
                [
                    -0.01625,
                    -0.09073,
                    -1.53052
                ]
            ],
            [
                [
                    -2.20551,
                    0.29789,
                    0.06481
                ],
                [
                    0.38186,
                    -1.77207,
                    0.09667
                ],
                [
                    0.01625,
                    0.09073,
                    -1.53052
                ]
            ]
        ]
    },
    "band_gap": 3.2569,
    "is_direct": true,
    "formula": "LiGaO2"
}