{
    "mp_id": "mp-560441",
    "nelements": 4,
    "nsites": 24,
    "elements": [
        "Ba",
        "O",
        "Si",
        "Zn"
    ],
    "structure": {
        "@module": "pymatgen.core.structure",
        "@class": "Structure",
        "charge": null,
        "lattice": {
            "matrix": [
                [
                    6.41953761,
                    -3.94401979,
                    0.0
                ],
                [
                    6.41953761,
                    3.94401979,
                    0.0
                ],
                [
                    0.0,
                    0.0,
                    6.53681259
                ]
            ],
            "a": 7.534305225441571,
            "b": 7.534305225441571,
            "c": 6.53681259,
            "alpha": 90.0,
            "beta": 90.0,
            "gamma": 63.13126386808766,
            "volume": 331.00828387783594
        },
        "sites": [
            {
                "species": [
                    {
                        "element": "Ba",
                        "occu": 1
                    }
                ],
                "abc": [
                    0.22513517,
                    0.77486483,
                    0.75
                ],
                "xyz": [
                    6.419537609999999,
                    2.1681446581899713,
                    4.9026094425
                ],
                "label": "Ba",
                "properties": {}
            },
            {
                "species": [
                    {
                        "element": "Ba",
                        "occu": 1
                    }
                ],
                "abc": [
                    0.77486483,
                    0.22513517,
                    0.25
                ],
                "xyz": [
                    6.419537609999999,
                    -2.1681446581899713,
                    1.6342031475
                ],
                "label": "Ba",
                "properties": {}
            },
            {
                "species": [
                    {
                        "element": "Zn",
                        "occu": 1
                    }
                ],
                "abc": [
                    0.7243741,
                    0.7243741,
                    0.5
                ],
                "xyz": [
                    9.300293557319803,
                    0.0,
                    3.268406295
                ],
                "label": "Zn",
                "properties": {}
            },
            {
                "species": [
                    {
                        "element": "Zn",
                        "occu": 1
                    }
                ],
                "abc": [
                    0.2756259,
                    0.2756259,
                    0.5
                ],
                "xyz": [
                    3.5387816626801976,
                    0.0,
                    3.268406295
                ],
                "label": "Zn",
                "properties": {}
            },
            {
                "species": [
                    {
                        "element": "Zn",
                        "occu": 1
                    }
                ],
                "abc": [
                    0.7243741,
                    0.7243741,
                    0.0
                ],
                "xyz": [
                    9.300293557319803,
                    0.0,
                    0.0
                ],
                "label": "Zn",
                "properties": {}
            },
            {
                "species": [
                    {
                        "element": "Zn",
                        "occu": 1
                    }
                ],
                "abc": [
                    0.2756259,
                    0.2756259,
                    0.0
                ],
                "xyz": [
                    3.5387816626801976,
                    0.0,
                    0.0
                ],
                "label": "Zn",
                "properties": {}
            },
            {
                "species": [
                    {
                        "element": "Si",
                        "occu": 1
                    }
                ],
                "abc": [
                    0.32700287,
                    0.91451616,
                    0.25
                ],
                "xyz": [
                    7.969978106615718,
                    2.3171640426480096,
                    1.6342031475
                ],
                "label": "Si",
                "properties": {}
            },
            {
                "species": [
                    {
                        "element": "Si",
                        "occu": 1
                    }
                ],
                "abc": [
                    0.08548384,
                    0.67299713,
                    0.25
                ],
                "xyz": [
                    4.8690971133842815,
                    2.3171640426480096,
                    1.6342031475
                ],
                "label": "Si",
                "properties": {}
            },
            {
                "species": [
                    {
                        "element": "Si",
                        "occu": 1
                    }
                ],
                "abc": [
                    0.91451616,
                    0.32700287,
                    0.75
                ],
                "xyz": [
                    7.969978106615718,
                    -2.3171640426480096,
                    4.9026094425
                ],
                "label": "Si",
                "properties": {}
            },
            {
                "species": [
                    {
                        "element": "Si",
                        "occu": 1
                    }
                ],
                "abc": [
                    0.67299713,
                    0.08548384,
                    0.75
                ],
                "xyz": [
                    4.8690971133842815,
                    -2.3171640426480096,
                    4.9026094425
                ],
                "label": "Si",
                "properties": {}
            },
            {
                "species": [
                    {
                        "element": "O",
                        "occu": 1
                    }
                ],
                "abc": [
                    0.16049283,
                    0.22911009,
                    0.75
                ],
                "xyz": [
                    2.501070597905821,
                    0.27062783137557533,
                    4.9026094425
                ],
                "label": "O",
                "properties": {}
            },
            {
                "species": [
                    {
                        "element": "O",
                        "occu": 1
                    }
                ],
                "abc": [
                    0.5537634,
                    0.17907815,
                    0.54046825
                ],
                "xyz": [
                    4.704503892395696,
                    -1.4777660410210975,
                    3.5329396610952677
                ],
                "label": "O",
                "properties": {}
            },
            {
                "species": [
                    {
                        "element": "O",
                        "occu": 1
                    }
                ],
                "abc": [
                    0.22911009,
                    0.16049283,
                    0.25
                ],
                "xyz": [
                    2.501070597905821,
                    -0.27062783137557533,
                    1.6342031475
                ],
                "label": "O",
                "properties": {}
            },
            {
                "species": [
                    {
                        "element": "O",
                        "occu": 1
                    }
                ],
                "abc": [
                    0.5537634,
                    0.17907815,
                    0.95953175
                ],
                "xyz": [
                    4.704503892395696,
                    -1.4777660410210975,
                    6.272279223904733
                ],
                "label": "O",
                "properties": {}
            },
            {
                "species": [
                    {
                        "element": "O",
                        "occu": 1
                    }
                ],
                "abc": [
                    0.83950717,
                    0.77088991,
                    0.25
                ],
                "xyz": [
                    10.338004622094179,
                    -0.2706278313755752,
                    1.6342031475
                ],
                "label": "O",
                "properties": {}
            },
            {
                "species": [
                    {
                        "element": "O",
                        "occu": 1
                    }
                ],
                "abc": [
                    0.1213123,
                    0.8786877,
                    0.25
                ],
                "xyz": [
                    6.41953761,
                    2.987103566059166,
                    1.6342031475
                ],
                "label": "O",
                "properties": {}
            },
            {
                "species": [
                    {
                        "element": "O",
                        "occu": 1
                    }
                ],
                "abc": [
                    0.4462366,
                    0.82092185,
                    0.45953175
                ],
                "xyz": [
                    8.134571327604304,
                    1.4777660410210975,
                    3.0038729289047326
                ],
                "label": "O",
                "properties": {}
            },
            {
                "species": [
                    {
                        "element": "O",
                        "occu": 1
                    }
                ],
                "abc": [
                    0.82092185,
                    0.4462366,
                    0.54046825
                ],
                "xyz": [
                    8.134571327604304,
                    -1.4777660410210975,
                    3.5329396610952677
                ],
                "label": "O",
                "properties": {}
            },
            {
                "species": [
                    {
                        "element": "O",
                        "occu": 1
                    }
                ],
                "abc": [
                    0.4462366,
                    0.82092185,
                    0.04046825
                ],
                "xyz": [
                    8.134571327604304,
                    1.4777660410210975,
                    0.2645333660952675
                ],
                "label": "O",
                "properties": {}
            },
            {
                "species": [
                    {
                        "element": "O",
                        "occu": 1
                    }
                ],
                "abc": [
                    0.17907815,
                    0.5537634,
                    0.04046825
                ],
                "xyz": [
                    4.704503892395696,
                    1.4777660410210975,
                    0.2645333660952675
                ],
                "label": "O",
                "properties": {}
            },
            {
                "species": [
                    {
                        "element": "O",
                        "occu": 1
                    }
                ],
                "abc": [
                    0.8786877,
                    0.1213123,
                    0.75
                ],
                "xyz": [
                    6.41953761,
                    -2.987103566059166,
                    4.9026094425
                ],
                "label": "O",
                "properties": {}
            },
            {
                "species": [
                    {
                        "element": "O",
                        "occu": 1
                    }
                ],
                "abc": [
                    0.82092185,
                    0.4462366,
                    0.95953175
                ],
                "xyz": [
                    8.134571327604304,
                    -1.4777660410210975,
                    6.272279223904733
                ],
                "label": "O",
                "properties": {}
            },
            {
                "species": [
                    {
                        "element": "O",
                        "occu": 1
                    }
                ],
                "abc": [
                    0.17907815,
                    0.5537634,
                    0.45953175
                ],
                "xyz": [
                    4.704503892395696,
                    1.4777660410210975,
                    3.0038729289047326
                ],
                "label": "O",
                "properties": {}
            },
            {
                "species": [
                    {
                        "element": "O",
                        "occu": 1
                    }
                ],
                "abc": [
                    0.77088991,
                    0.83950717,
                    0.75
                ],
                "xyz": [
                    10.338004622094179,
                    0.2706278313755752,
                    4.9026094425
                ],
                "label": "O",
                "properties": {}
            }
        ]
    },
    "spacegroup": {
        "source": "spglib",
        "symbol": "Cmcm",
        "number": 63,
        "point_group": "mmm",
        "crystal_system": "orthorhombic",
        "hall": "-C 2c 2"
    },
    "dielectric": {
        "epsilon_ionic": [
            [
                5.10245513,
                -0.0,
                0.0
            ],
            [
                -0.0,
                5.98857905,
                0.0
            ],
            [
                0.0,
                0.0,
                5.09669024
            ]
        ],
        "epsilon_ionic_avg": 5.39590814,
        "epsilon_ionic_eig": [
            5.10245513,
            5.98857905,
            5.09669024
        ],
        "epsilon_electronic": [
            [
                3.00969022,
                0.0,
                0.0
            ],
            [
                0.0,
                2.93885762,
                0.0
            ],
            [
                0.0,
                0.0,
                3.11533055
            ]
        ],
        "epsilon_electronic_avg": 3.0212927966666663,
        "epsilon_electronic_eig": [
            3.00969022,
            2.93885762,
            3.11533055
        ]
    },
    "phonon": {
        "lowest_freq": -0.06414543157821744,
        "frequency": [
            -0.06414543157821744,
            -0.049566511543333226,
            -0.015804530555188163,
            1.9519817503517836,
            2.0556254480772873,
            2.46522106315079,
            2.5307951519967373,
            2.569673978496833,
            2.5957689476312304,
            3.2006367374426086,
            3.2531011738310345,
            3.561375410863281,
            3.6355498484109763,
            3.6540731179453085,
            4.151970728729697,
            4.465997995608138,
            4.552259550431823,
            4.902772222820405,
            4.914570163583232,
            5.0298651305300695,
            5.201017935531958,
            5.223039663066511,
            5.745671351635057,
            5.7475882746807025,
            6.116024695739247,
            6.119461761781544,
            7.1489905658870585,
            7.972954607880517,
            8.05946964483335,
            8.238196206253338,
            8.376835129701474,
            8.564450521765622,
            8.617320471089151,
            8.874657066027147,
            8.94460281762204,
            9.203662257274305,
            9.921781657396862,
            10.109226247507934,
            11.45323376154546,
            12.019310208313307,
            12.732480214315643,
            13.03047963821515,
            13.254282762143063,
            13.483292929989569,
            13.64760211377311,
            13.831216990396447,
            14.040354377675042,
            14.515238873430617,
            14.62279193678005,
            14.919874688826267,
            15.95042704585623,
            15.98293381702436,
            16.050336809438964,
            16.462535973022966,
            17.00528016960599,
            17.28077971163789,
            18.945617048533812,
            19.292387037792587,
            24.26546486748045,
            24.36369004743515,
            25.647156980051708,
            25.800720322033982,
            27.11674685695737,
            27.262580125893038,
            27.451859257939404,
            28.00835357749675,
            28.1068431968093,
            29.035731467911212,
            29.0582664784503,
            29.203336910524595,
            29.880862550532655,
            30.32109113279546
        ]
    },
    "born_effective_charge": {
        "avg_abs_trace": 2.1099981944444446,
        "tensors": [
            [
                [
                    2.79565,
                    0.0,
                    -0.0
                ],
                [
                    -0.0,
                    2.23812,
                    -0.0
                ],
                [
                    0.0,
                    4e-05,
                    3.01837
                ]
            ],
            [
                [
                    2.79565,
                    -0.0,
                    -0.0
                ],
                [
                    -0.0,
                    2.23813,
                    -0.0
                ],
                [
                    0.0,
                    -4e-05,
                    3.01837
                ]
            ],
            [
                [
                    1.92069,
                    0.0,
                    -0.0
                ],
                [
                    1e-05,
                    2.17147,
                    0.07477
                ],
                [
                    2e-05,
                    -0.08976,
                    2.04308
                ]
            ],
            [
                [
                    1.9207,
                    0.0,
                    -0.0
                ],
                [
                    -1e-05,
                    2.17147,
                    0.07477
                ],
                [
                    -2e-05,
                    -0.08976,
                    2.04308
                ]
            ],
            [
                [
                    1.92069,
                    0.0,
                    -0.0
                ],
                [
                    1e-05,
                    2.17147,
                    -0.07477
                ],
                [
                    2e-05,
                    0.08976,
                    2.04308
                ]
            ],
            [
                [
                    1.9207,
                    0.0,
                    -0.0
                ],
                [
                    -1e-05,
                    2.17147,
                    -0.07477
                ],
                [
                    -2e-05,
                    0.08976,
                    2.04308
                ]
            ],
            [
                [
                    3.05555,
                    -0.00485,
                    -0.0
                ],
                [
                    0.09413,
                    2.78264,
                    -0.0
                ],
                [
                    -0.0,
                    -5e-05,
                    2.99045
                ]
            ],
            [
                [
                    3.05554,
                    0.0048,
                    -0.0
                ],
                [
                    -0.09413,
                    2.78264,
                    -0.0
                ],
                [
                    0.0,
                    -5e-05,
                    2.99045
                ]
            ],
            [
                [
                    3.05555,
                    0.00485,
                    -0.0
                ],
                [
                    -0.09416,
                    2.78269,
                    -0.0
                ],
                [
                    -0.0,
                    5e-05,
                    2.99045
                ]
            ],
            [
                [
                    3.05554,
                    -0.0048,
                    -0.0
                ],
                [
                    0.09416,
                    2.78269,
                    -0.0
                ],
                [
                    0.0,
                    5e-05,
                    2.99045
                ]
            ],
            [
                [
                    -1.77228,
                    0.52445,
                    -0.0
                ],
                [
                    0.48534,
                    -1.78095,
                    -0.0
                ],
                [
                    -2e-05,
                    -0.00012,
                    -1.83833
                ]
            ],
            [
                [
                    -1.57983,
                    0.36171,
                    0.0383
                ],
                [
                    0.33285,
                    -1.73988,
                    0.3442
                ],
                [
                    0.10258,
                    0.349,
                    -2.0393
                ]
            ],
            [
                [
                    -1.77228,
                    -0.52445,
                    -0.0
                ],
                [
                    -0.48538,
                    -1.78099,
                    -0.0
                ],
                [
                    -2e-05,
                    0.00012,
                    -1.83833
                ]
            ],
            [
                [
                    -1.57983,
                    0.36171,
                    -0.0383
                ],
                [
                    0.33285,
                    -1.73988,
                    -0.3442
                ],
                [
                    -0.10264,
                    -0.34885,
                    -2.0392
                ]
            ],
            [
                [
                    -1.77231,
                    0.5245,
                    -0.0
                ],
                [
                    0.48538,
                    -1.78099,
                    -0.0
                ],
                [
                    2e-05,
                    0.00012,
                    -1.83833
                ]
            ],
            [
                [
                    -2.88423,
                    1e-05,
                    -0.0
                ],
                [
                    -0.0,
                    -1.62493,
                    -0.0
                ],
                [
                    0.0,
                    5e-05,
                    -1.25177
                ]
            ],
            [
                [
                    -1.57983,
                    0.36171,
                    0.03828
                ],
                [
                    0.33288,
                    -1.73988,
                    0.34411
                ],
                [
                    0.10264,
                    0.34885,
                    -2.0392
                ]
            ],
            [
                [
                    -1.57983,
                    -0.36171,
                    -0.03828
                ],
                [
                    -0.33285,
                    -1.73988,
                    0.3442
                ],
                [
                    -0.10258,
                    0.349,
                    -2.0393
                ]
            ],
            [
                [
                    -1.57983,
                    0.36171,
                    -0.03828
                ],
                [
                    0.33288,
                    -1.73988,
                    -0.34411
                ],
                [
                    -0.10258,
                    -0.349,
                    -2.0393
                ]
            ],
            [
                [
                    -1.57983,
                    -0.36171,
                    0.0383
                ],
                [
                    -0.33288,
                    -1.73988,
                    -0.34411
                ],
                [
                    0.10258,
                    -0.349,
                    -2.0393
                ]
            ],
            [
                [
                    -2.88423,
                    -1e-05,
                    -0.0
                ],
                [
                    -0.0,
                    -1.62497,
                    -0.0
                ],
                [
                    0.0,
                    -5e-05,
                    -1.25177
                ]
            ],
            [
                [
                    -1.57983,
                    -0.36171,
                    0.03828
                ],
                [
                    -0.33285,
                    -1.73988,
                    -0.3442
                ],
                [
                    0.10264,
                    -0.34885,
                    -2.0392
                ]
            ],
            [
                [
                    -1.57983,
                    -0.36171,
                    -0.0383
                ],
                [
                    -0.33288,
                    -1.73988,
                    0.34411
                ],
                [
                    -0.10264,
                    0.34885,
                    -2.0392
                ]
            ],
            [
                [
                    -1.77231,
                    -0.5245,
                    -0.0
                ],
                [
                    -0.48534,
                    -1.78095,
                    -0.0
                ],
                [
                    2e-05,
                    -0.00012,
                    -1.83833
                ]
            ]
        ]
    },
    "band_gap": 3.7451,
    "is_direct": false,
    "formula": "BaZn2Si2O7"
}