{
    "mp_id": "mp-504827",
    "nelements": 4,
    "nsites": 34,
    "elements": [
        "Ga",
        "Ge",
        "O",
        "Pb"
    ],
    "structure": {
        "@module": "pymatgen.core.structure",
        "@class": "Structure",
        "charge": null,
        "lattice": {
            "matrix": [
                [
                    7.78188244,
                    -5.86359215,
                    0.0001271
                ],
                [
                    7.78188244,
                    5.86359215,
                    0.0001271
                ],
                [
                    -1.67023479,
                    0.0,
                    4.84729782
                ]
            ],
            "a": 9.743685505376105,
            "b": 9.743685505376105,
            "c": 5.1269855090006935,
            "alpha": 105.08011545866135,
            "beta": 105.08011545866135,
            "gamma": 73.9955209296256,
            "volume": 442.36480218105106
        },
        "sites": [
            {
                "species": [
                    {
                        "element": "Ga",
                        "occu": 1
                    }
                ],
                "abc": [
                    0.63280358,
                    0.36719642,
                    0.5
                ],
                "xyz": [
                    6.946765045000001,
                    -1.5574120583597941,
                    2.4237760099999996
                ],
                "label": "Ga",
                "properties": {}
            },
            {
                "species": [
                    {
                        "element": "Ga",
                        "occu": 1
                    }
                ],
                "abc": [
                    0.36719642,
                    0.63280358,
                    0.5
                ],
                "xyz": [
                    6.946765045000001,
                    1.5574120583597941,
                    2.4237760099999996
                ],
                "label": "Ga",
                "properties": {}
            },
            {
                "species": [
                    {
                        "element": "Ga",
                        "occu": 1
                    }
                ],
                "abc": [
                    0.99373367,
                    0.72174962,
                    0.37652219
                ],
                "xyz": [
                    12.720808829619438,
                    -1.5948035405052075,
                    1.8253332286947845
                ],
                "label": "Ga",
                "properties": {}
            },
            {
                "species": [
                    {
                        "element": "Ga",
                        "occu": 1
                    }
                ],
                "abc": [
                    0.27825038,
                    0.00626633,
                    0.62347781
                ],
                "xyz": [
                    1.1727212603805626,
                    -1.5948035405052077,
                    3.022218791305215
                ],
                "label": "Ga",
                "properties": {}
            },
            {
                "species": [
                    {
                        "element": "Ga",
                        "occu": 1
                    }
                ],
                "abc": [
                    0.00626633,
                    0.27825038,
                    0.62347781
                ],
                "xyz": [
                    1.1727212603805626,
                    1.5948035405052077,
                    3.022218791305215
                ],
                "label": "Ga",
                "properties": {}
            },
            {
                "species": [
                    {
                        "element": "Ga",
                        "occu": 1
                    }
                ],
                "abc": [
                    0.72174962,
                    0.99373367,
                    0.37652219
                ],
                "xyz": [
                    12.720808829619438,
                    1.5948035405052075,
                    1.8253332286947845
                ],
                "label": "Ga",
                "properties": {}
            },
            {
                "species": [
                    {
                        "element": "Ga",
                        "occu": 1
                    }
                ],
                "abc": [
                    0.85044515,
                    0.42121545,
                    0.10508059
                ],
                "xyz": [
                    9.720404035608139,
                    -2.5168278994668545,
                    0.5095185428935738
                ],
                "label": "Ga",
                "properties": {}
            },
            {
                "species": [
                    {
                        "element": "Ga",
                        "occu": 1
                    }
                ],
                "abc": [
                    0.57878455,
                    0.14955485,
                    0.89491941
                ],
                "xyz": [
                    4.1731260543918625,
                    -2.5168278994668545,
                    4.338033477106426
                ],
                "label": "Ga",
                "properties": {}
            },
            {
                "species": [
                    {
                        "element": "Ga",
                        "occu": 1
                    }
                ],
                "abc": [
                    0.14955485,
                    0.57878455,
                    0.89491941
                ],
                "xyz": [
                    4.1731260543918625,
                    2.5168278994668545,
                    4.338033477106426
                ],
                "label": "Ga",
                "properties": {}
            },
            {
                "species": [
                    {
                        "element": "Ga",
                        "occu": 1
                    }
                ],
                "abc": [
                    0.42121545,
                    0.85044515,
                    0.10508059
                ],
                "xyz": [
                    9.720404035608139,
                    2.5168278994668545,
                    0.5095185428935738
                ],
                "label": "Ga",
                "properties": {}
            },
            {
                "species": [
                    {
                        "element": "Ge",
                        "occu": 1
                    }
                ],
                "abc": [
                    0.5,
                    0.5,
                    0.0
                ],
                "xyz": [
                    7.78188244,
                    0.0,
                    0.0001271
                ],
                "label": "Ge",
                "properties": {}
            },
            {
                "species": [
                    {
                        "element": "Pb",
                        "occu": 1
                    }
                ],
                "abc": [
                    0.0,
                    0.0,
                    0.0
                ],
                "xyz": [
                    0.0,
                    0.0,
                    0.0
                ],
                "label": "Pb",
                "properties": {}
            },
            {
                "species": [
                    {
                        "element": "Pb",
                        "occu": 1
                    }
                ],
                "abc": [
                    0.27459151,
                    0.27459151,
                    0.21546359
                ],
                "xyz": [
                    3.9138029156878726,
                    0.0,
                    1.0444859912582158
                ],
                "label": "Pb",
                "properties": {}
            },
            {
                "species": [
                    {
                        "element": "Pb",
                        "occu": 1
                    }
                ],
                "abc": [
                    0.72540849,
                    0.72540849,
                    0.78453641
                ],
                "xyz": [
                    9.979727174312128,
                    0.0,
                    3.803066028741784
                ],
                "label": "Pb",
                "properties": {}
            },
            {
                "species": [
                    {
                        "element": "O",
                        "occu": 1
                    }
                ],
                "abc": [
                    0.43220956,
                    0.43220956,
                    0.25209597
                ],
                "xyz": [
                    6.305748511215457,
                    0.0,
                    1.2220941134819374
                ],
                "label": "O",
                "properties": {}
            },
            {
                "species": [
                    {
                        "element": "O",
                        "occu": 1
                    }
                ],
                "abc": [
                    0.56779044,
                    0.56779044,
                    0.74790403
                ],
                "xyz": [
                    7.587781578784544,
                    0.0,
                    3.6254579065180623
                ],
                "label": "O",
                "properties": {}
            },
            {
                "species": [
                    {
                        "element": "O",
                        "occu": 1
                    }
                ],
                "abc": [
                    0.90379073,
                    0.90379073,
                    0.30351779
                ],
                "xyz": [
                    13.559440450201649,
                    0.0,
                    1.4714708654017838
                ],
                "label": "O",
                "properties": {}
            },
            {
                "species": [
                    {
                        "element": "O",
                        "occu": 1
                    }
                ],
                "abc": [
                    0.09620927,
                    0.09620927,
                    0.69648221
                ],
                "xyz": [
                    0.3340896397983517,
                    0.0,
                    3.3760811545982157
                ],
                "label": "O",
                "properties": {}
            },
            {
                "species": [
                    {
                        "element": "O",
                        "occu": 1
                    }
                ],
                "abc": [
                    0.87721496,
                    0.60440707,
                    0.13201044
                ],
                "xyz": [
                    11.309320028442945,
                    -1.5996342022620635,
                    0.6400822321892538
                ],
                "label": "O",
                "properties": {}
            },
            {
                "species": [
                    {
                        "element": "O",
                        "occu": 1
                    }
                ],
                "abc": [
                    0.39559293,
                    0.12278504,
                    0.86798956
                ],
                "xyz": [
                    2.5842100615570542,
                    -1.5996342022620633,
                    4.207469787810746
                ],
                "label": "O",
                "properties": {}
            },
            {
                "species": [
                    {
                        "element": "O",
                        "occu": 1
                    }
                ],
                "abc": [
                    0.12278504,
                    0.39559293,
                    0.86798956
                ],
                "xyz": [
                    2.5842100615570542,
                    1.5996342022620633,
                    4.207469787810746
                ],
                "label": "O",
                "properties": {}
            },
            {
                "species": [
                    {
                        "element": "O",
                        "occu": 1
                    }
                ],
                "abc": [
                    0.60440707,
                    0.87721496,
                    0.13201044
                ],
                "xyz": [
                    11.309320028442945,
                    1.5996342022620635,
                    0.6400822321892538
                ],
                "label": "O",
                "properties": {}
            },
            {
                "species": [
                    {
                        "element": "O",
                        "occu": 1
                    }
                ],
                "abc": [
                    0.17282161,
                    0.66176948,
                    0.27058858
                ],
                "xyz": [
                    6.0427432877587615,
                    2.8669908922912204,
                    1.3117295104784346
                ],
                "label": "O",
                "properties": {}
            },
            {
                "species": [
                    {
                        "element": "O",
                        "occu": 1
                    }
                ],
                "abc": [
                    0.33823052,
                    0.82717839,
                    0.72941142
                ],
                "xyz": [
                    7.850786802241239,
                    2.8669908922912204,
                    3.5358225095215654
                ],
                "label": "O",
                "properties": {}
            },
            {
                "species": [
                    {
                        "element": "O",
                        "occu": 1
                    }
                ],
                "abc": [
                    0.82717839,
                    0.33823052,
                    0.72941142
                ],
                "xyz": [
                    7.850786802241239,
                    -2.8669908922912204,
                    3.5358225095215654
                ],
                "label": "O",
                "properties": {}
            },
            {
                "species": [
                    {
                        "element": "O",
                        "occu": 1
                    }
                ],
                "abc": [
                    0.66176948,
                    0.17282161,
                    0.27058858
                ],
                "xyz": [
                    6.0427432877587615,
                    -2.8669908922912204,
                    1.3117295104784346
                ],
                "label": "O",
                "properties": {}
            },
            {
                "species": [
                    {
                        "element": "O",
                        "occu": 1
                    }
                ],
                "abc": [
                    0.72140407,
                    0.00761943,
                    0.74033784
                ],
                "xyz": [
                    4.436637156275887,
                    -4.185342011894575,
                    3.5887306567823587
                ],
                "label": "O",
                "properties": {}
            },
            {
                "species": [
                    {
                        "element": "O",
                        "occu": 1
                    }
                ],
                "abc": [
                    0.99238057,
                    0.27859593,
                    0.25966216
                ],
                "xyz": [
                    9.456892933724115,
                    -4.185342011894576,
                    1.2588213632176408
                ],
                "label": "O",
                "properties": {}
            },
            {
                "species": [
                    {
                        "element": "O",
                        "occu": 1
                    }
                ],
                "abc": [
                    0.27859593,
                    0.99238057,
                    0.25966216
                ],
                "xyz": [
                    9.456892933724115,
                    4.185342011894576,
                    1.2588213632176408
                ],
                "label": "O",
                "properties": {}
            },
            {
                "species": [
                    {
                        "element": "O",
                        "occu": 1
                    }
                ],
                "abc": [
                    0.00761943,
                    0.72140407,
                    0.74033784
                ],
                "xyz": [
                    4.436637156275887,
                    4.185342011894575,
                    3.5887306567823587
                ],
                "label": "O",
                "properties": {}
            },
            {
                "species": [
                    {
                        "element": "O",
                        "occu": 1
                    }
                ],
                "abc": [
                    0.54483851,
                    0.31488873,
                    0.75576434
                ],
                "xyz": [
                    5.427992418436278,
                    -1.3483317249022273,
                    3.6635241090479425
                ],
                "label": "O",
                "properties": {}
            },
            {
                "species": [
                    {
                        "element": "O",
                        "occu": 1
                    }
                ],
                "abc": [
                    0.68511127,
                    0.45516149,
                    0.24423566
                ],
                "xyz": [
                    8.465537671563723,
                    -1.3483317249022275,
                    1.184027910952057
                ],
                "label": "O",
                "properties": {}
            },
            {
                "species": [
                    {
                        "element": "O",
                        "occu": 1
                    }
                ],
                "abc": [
                    0.45516149,
                    0.68511127,
                    0.24423566
                ],
                "xyz": [
                    8.465537671563723,
                    1.3483317249022275,
                    1.184027910952057
                ],
                "label": "O",
                "properties": {}
            },
            {
                "species": [
                    {
                        "element": "O",
                        "occu": 1
                    }
                ],
                "abc": [
                    0.31488873,
                    0.54483851,
                    0.75576434
                ],
                "xyz": [
                    5.427992418436278,
                    1.3483317249022273,
                    3.6635241090479425
                ],
                "label": "O",
                "properties": {}
            }
        ]
    },
    "spacegroup": {
        "source": "spglib",
        "symbol": "C2/m",
        "number": 12,
        "point_group": "2/m",
        "crystal_system": "monoclinic",
        "hall": "-C 2y"
    },
    "dielectric": {
        "epsilon_ionic": [
            [
                25.43919163,
                -0.0,
                11.42085397
            ],
            [
                -0.0,
                10.48731948,
                0.0
            ],
            [
                11.42085397,
                0.0,
                19.41843196
            ]
        ],
        "epsilon_ionic_avg": 18.448314356666668,
        "epsilon_ionic_eig": [
            34.23975130695413,
            10.617872283045864,
            10.48731948
        ],
        "epsilon_electronic": [
            [
                4.30813587,
                0.0,
                -0.05770673
            ],
            [
                0.0,
                4.18430704,
                0.0
            ],
            [
                -0.0577083,
                0.0,
                4.1810908
            ]
        ],
        "epsilon_electronic_avg": 4.224511236666667,
        "epsilon_electronic_eig": [
            4.330434484722462,
            4.158792185277538,
            4.18430704
        ]
    },
    "phonon": {
        "lowest_freq": -0.043898865775464334,
        "frequency": [
            -0.043898865775464334,
            -0.040458386395664674,
            -0.03447375508889438,
            1.2132324372592727,
            1.4434894333467807,
            1.6519164890738818,
            1.7318988537586544,
            1.8782712582177716,
            2.0861491511215116,
            2.2012924523084503,
            2.314148016047671,
            2.348790834110632,
            2.361016136311742,
            3.1539483840368163,
            3.2681435517079516,
            3.3155706024991893,
            3.3398716811649463,
            3.5934389202243606,
            3.6848322518289245,
            3.8038542918800737,
            3.9862050764710655,
            4.151297026744792,
            4.436012636401924,
            4.712162729387462,
            4.769204969415511,
            5.04332944216962,
            5.132714513332489,
            5.144058691973129,
            5.145707515899787,
            5.368526257268637,
            5.508838615687862,
            5.783062065722724,
            5.785557969697297,
            5.814189583606741,
            5.908463030500741,
            6.033042306462578,
            6.051142646177294,
            6.371500918309524,
            6.440570164005213,
            6.812068707943156,
            6.888898173625563,
            6.9193693661226945,
            7.203264057190425,
            7.287130990115757,
            7.399000760087362,
            7.426550875218593,
            7.4547078560281825,
            7.621125547650489,
            7.695277922790411,
            8.039867583032121,
            8.601963030730285,
            8.963387246365208,
            8.973536741630808,
            9.027442882810123,
            9.345493489371389,
            9.471110604386757,
            9.689548854698375,
            10.069741580480375,
            10.232011493717131,
            11.168209992736513,
            11.203181716198644,
            12.038459413222002,
            12.505533374516455,
            12.612041423200058,
            12.844107095676193,
            13.081777655205856,
            13.155108938205057,
            13.489046436474146,
            13.56915560026348,
            13.745170617677363,
            13.779493835822883,
            14.380126377155229,
            14.53647536070942,
            14.644273063133923,
            15.315378583483804,
            15.524798039949895,
            15.576202433318869,
            15.690419530060021,
            16.698264600806432,
            17.337836222098332,
            17.48309648352475,
            17.603716708923674,
            18.69145425069235,
            18.862609673904593,
            18.865455821469602,
            19.464566904824828,
            19.71096766146,
            19.735667872637638,
            19.964673199227512,
            20.07301834943118,
            20.237666242272212,
            20.43215868495291,
            20.674141940984992,
            20.889699340531443,
            21.23329108660596,
            21.38610509323147,
            21.692848044101954,
            22.241979111354954,
            22.25383819087627,
            22.47971992537434,
            22.866953105514675,
            23.029771896921627
        ]
    },
    "born_effective_charge": {
        "avg_abs_trace": 2.5051639215686277,
        "tensors": [
            [
                [
                    3.03998,
                    -3e-05,
                    0.10443
                ],
                [
                    -0.0,
                    3.31058,
                    0.0
                ],
                [
                    -0.03628,
                    9e-05,
                    3.5779
                ]
            ],
            [
                [
                    3.03998,
                    3e-05,
                    0.10443
                ],
                [
                    -0.0,
                    3.31057,
                    0.0
                ],
                [
                    -0.03628,
                    -9e-05,
                    3.5779
                ]
            ],
            [
                [
                    2.51513,
                    -0.09136,
                    0.09463
                ],
                [
                    -0.19903,
                    2.73256,
                    0.01369
                ],
                [
                    -0.05283,
                    -0.02027,
                    3.09
                ]
            ],
            [
                [
                    2.515,
                    0.0913,
                    0.09462
                ],
                [
                    0.19903,
                    2.73256,
                    -0.01369
                ],
                [
                    -0.05294,
                    0.02035,
                    3.09029
                ]
            ],
            [
                [
                    2.515,
                    -0.0913,
                    0.09462
                ],
                [
                    -0.19903,
                    2.73268,
                    0.01367
                ],
                [
                    -0.05294,
                    -0.02035,
                    3.09029
                ]
            ],
            [
                [
                    2.51513,
                    0.09136,
                    0.09463
                ],
                [
                    0.19903,
                    2.73268,
                    -0.01367
                ],
                [
                    -0.05283,
                    0.02027,
                    3.09
                ]
            ],
            [
                [
                    2.87835,
                    0.01414,
                    -0.32818
                ],
                [
                    0.15705,
                    3.23756,
                    0.03126
                ],
                [
                    -0.18842,
                    -0.01358,
                    2.49395
                ]
            ],
            [
                [
                    2.87841,
                    -0.01422,
                    -0.32805
                ],
                [
                    -0.15705,
                    3.23756,
                    -0.03126
                ],
                [
                    -0.18836,
                    0.01362,
                    2.49387
                ]
            ],
            [
                [
                    2.87841,
                    0.01422,
                    -0.32805
                ],
                [
                    0.15704,
                    3.23762,
                    0.03131
                ],
                [
                    -0.18836,
                    -0.01362,
                    2.49387
                ]
            ],
            [
                [
                    2.87835,
                    -0.01414,
                    -0.32818
                ],
                [
                    -0.15704,
                    3.23762,
                    -0.03131
                ],
                [
                    -0.18842,
                    0.01358,
                    2.49395
                ]
            ],
            [
                [
                    3.68281,
                    -0.0,
                    -0.39186
                ],
                [
                    -0.0,
                    4.08768,
                    0.0
                ],
                [
                    -0.12749,
                    0.0,
                    4.11765
                ]
            ],
            [
                [
                    4.47584,
                    -0.0,
                    -0.17812
                ],
                [
                    -0.0,
                    2.53663,
                    0.0
                ],
                [
                    -0.06657,
                    0.0,
                    3.03179
                ]
            ],
            [
                [
                    3.57589,
                    -0.0,
                    -0.04976
                ],
                [
                    -7e-05,
                    2.74131,
                    -0.0
                ],
                [
                    -0.03052,
                    0.0,
                    2.77447
                ]
            ],
            [
                [
                    3.57578,
                    -0.0,
                    -0.04964
                ],
                [
                    7e-05,
                    2.74131,
                    0.0
                ],
                [
                    -0.03067,
                    0.0,
                    2.77446
                ]
            ],
            [
                [
                    -2.92966,
                    -0.0,
                    0.23214
                ],
                [
                    4e-05,
                    -1.96311,
                    2e-05
                ],
                [
                    0.03284,
                    0.0,
                    -2.01244
                ]
            ],
            [
                [
                    -2.92952,
                    -0.0,
                    0.23205
                ],
                [
                    -4e-05,
                    -1.96311,
                    -2e-05
                ],
                [
                    0.03229,
                    0.0,
                    -2.01252
                ]
            ],
            [
                [
                    -2.25617,
                    -0.0,
                    0.44666
                ],
                [
                    7e-05,
                    -2.19261,
                    -3e-05
                ],
                [
                    0.49899,
                    0.0,
                    -1.96273
                ]
            ],
            [
                [
                    -2.25661,
                    -0.0,
                    0.44688
                ],
                [
                    -7e-05,
                    -2.19261,
                    3e-05
                ],
                [
                    0.49967,
                    0.0,
                    -1.96216
                ]
            ],
            [
                [
                    -2.35028,
                    -0.42291,
                    -0.26845
                ],
                [
                    -0.38685,
                    -1.96156,
                    0.51004
                ],
                [
                    -0.24736,
                    0.39671,
                    -1.99403
                ]
            ],
            [
                [
                    -2.3503,
                    0.42315,
                    -0.26838
                ],
                [
                    0.38685,
                    -1.96156,
                    -0.51004
                ],
                [
                    -0.24761,
                    -0.3971,
                    -1.99415
                ]
            ],
            [
                [
                    -2.3503,
                    -0.42315,
                    -0.26838
                ],
                [
                    -0.3868,
                    -1.96155,
                    0.50994
                ],
                [
                    -0.24761,
                    0.3971,
                    -1.99415
                ]
            ],
            [
                [
                    -2.35028,
                    0.42291,
                    -0.26845
                ],
                [
                    0.3868,
                    -1.96155,
                    -0.50994
                ],
                [
                    -0.24736,
                    -0.39671,
                    -1.99403
                ]
            ],
            [
                [
                    -1.68527,
                    0.57407,
                    -0.12209
                ],
                [
                    0.53537,
                    -2.21638,
                    -0.05218
                ],
                [
                    -0.1155,
                    0.00197,
                    -2.23308
                ]
            ],
            [
                [
                    -1.68524,
                    -0.57409,
                    -0.122
                ],
                [
                    -0.53537,
                    -2.21638,
                    0.05218
                ],
                [
                    -0.11529,
                    -0.00183,
                    -2.23306
                ]
            ],
            [
                [
                    -1.68524,
                    0.57409,
                    -0.122
                ],
                [
                    0.53539,
                    -2.2164,
                    -0.05217
                ],
                [
                    -0.11529,
                    0.00183,
                    -2.23306
                ]
            ],
            [
                [
                    -1.68527,
                    -0.57407,
                    -0.12209
                ],
                [
                    -0.53539,
                    -2.2164,
                    0.05217
                ],
                [
                    -0.1155,
                    -0.00197,
                    -2.23308
                ]
            ],
            [
                [
                    -1.91124,
                    0.08108,
                    0.10677
                ],
                [
                    0.1914,
                    -2.35979,
                    -0.13976
                ],
                [
                    0.19979,
                    -0.1063,
                    -2.26366
                ]
            ],
            [
                [
                    -1.91106,
                    -0.08115,
                    0.10681
                ],
                [
                    -0.1914,
                    -2.35979,
                    0.13976
                ],
                [
                    0.19977,
                    0.10643,
                    -2.26378
                ]
            ],
            [
                [
                    -1.91106,
                    0.08115,
                    0.10681
                ],
                [
                    0.19134,
                    -2.35986,
                    -0.1397
                ],
                [
                    0.19977,
                    -0.10643,
                    -2.26378
                ]
            ],
            [
                [
                    -1.91124,
                    -0.08108,
                    0.10677
                ],
                [
                    -0.19134,
                    -2.35986,
                    0.1397
                ],
                [
                    0.19979,
                    0.1063,
                    -2.26366
                ]
            ],
            [
                [
                    -2.20131,
                    -0.5857,
                    0.2928
                ],
                [
                    -0.41718,
                    -2.03656,
                    -0.17338
                ],
                [
                    0.22031,
                    -0.16899,
                    -2.06922
                ]
            ],
            [
                [
                    -2.20134,
                    0.58567,
                    0.2929
                ],
                [
                    0.41718,
                    -2.03656,
                    0.17338
                ],
                [
                    0.22045,
                    0.16901,
                    -2.06928
                ]
            ],
            [
                [
                    -2.20134,
                    -0.58567,
                    0.2929
                ],
                [
                    -0.41716,
                    -2.03665,
                    -0.17342
                ],
                [
                    0.22045,
                    -0.16901,
                    -2.06928
                ]
            ],
            [
                [
                    -2.20131,
                    0.5857,
                    0.2928
                ],
                [
                    0.41716,
                    -2.03665,
                    0.17342
                ],
                [
                    0.22031,
                    0.16899,
                    -2.06922
                ]
            ]
        ]
    },
    "band_gap": 2.9521,
    "is_direct": false,
    "formula": "Ga10GePb3O20"
}