{
    "mp_id": "mp-558085",
    "nelements": 4,
    "nsites": 24,
    "elements": [
        "Ge",
        "K",
        "Na",
        "O"
    ],
    "structure": {
        "@module": "pymatgen.core.structure",
        "@class": "Structure",
        "charge": null,
        "lattice": {
            "matrix": [
                [
                    6.95499338,
                    0.0,
                    0.0
                ],
                [
                    0.0,
                    10.70968091,
                    0.0
                ],
                [
                    0.0,
                    0.0,
                    4.73439075
                ]
            ],
            "a": 6.95499338,
            "b": 10.70968091,
            "c": 4.73439075,
            "alpha": 90.0,
            "beta": 90.0,
            "gamma": 90.0,
            "volume": 352.64469235042986
        },
        "sites": [
            {
                "species": [
                    {
                        "element": "K",
                        "occu": 1
                    }
                ],
                "abc": [
                    0.88373173,
                    0.73678382,
                    0.52558405
                ],
                "xyz": [
                    6.146348331845948,
                    7.890719611850876,
                    2.4883202646675375
                ],
                "label": "K",
                "properties": {}
            },
            {
                "species": [
                    {
                        "element": "K",
                        "occu": 1
                    }
                ],
                "abc": [
                    0.38373173,
                    0.76321618,
                    0.52558405
                ],
                "xyz": [
                    2.6688516418459476,
                    8.173801753149124,
                    2.4883202646675375
                ],
                "label": "K",
                "properties": {}
            },
            {
                "species": [
                    {
                        "element": "K",
                        "occu": 1
                    }
                ],
                "abc": [
                    0.61626827,
                    0.23678382,
                    0.02558405
                ],
                "xyz": [
                    4.286141738154052,
                    2.5358791568508763,
                    0.12112488966753751
                ],
                "label": "K",
                "properties": {}
            },
            {
                "species": [
                    {
                        "element": "K",
                        "occu": 1
                    }
                ],
                "abc": [
                    0.11626827,
                    0.26321618,
                    0.02558405
                ],
                "xyz": [
                    0.8086450481540527,
                    2.818961298149124,
                    0.12112488966753751
                ],
                "label": "K",
                "properties": {}
            },
            {
                "species": [
                    {
                        "element": "Na",
                        "occu": 1
                    }
                ],
                "abc": [
                    0.87756313,
                    0.41949693,
                    0.54125091
                ],
                "xyz": [
                    6.10344575968208,
                    4.492678263024606,
                    2.562493301733083
                ],
                "label": "Na",
                "properties": {}
            },
            {
                "species": [
                    {
                        "element": "Na",
                        "occu": 1
                    }
                ],
                "abc": [
                    0.62243687,
                    0.91949693,
                    0.04125091
                ],
                "xyz": [
                    4.329044310317921,
                    9.847518718024606,
                    0.19529792673308252
                ],
                "label": "Na",
                "properties": {}
            },
            {
                "species": [
                    {
                        "element": "Na",
                        "occu": 1
                    }
                ],
                "abc": [
                    0.37756313,
                    0.08050307,
                    0.54125091
                ],
                "xyz": [
                    2.6259490696820795,
                    0.8621621919753936,
                    2.562493301733083
                ],
                "label": "Na",
                "properties": {}
            },
            {
                "species": [
                    {
                        "element": "Na",
                        "occu": 1
                    }
                ],
                "abc": [
                    0.12243687,
                    0.58050307,
                    0.04125091
                ],
                "xyz": [
                    0.8515476203179206,
                    6.217002646975393,
                    0.19529792673308252
                ],
                "label": "Na",
                "properties": {}
            },
            {
                "species": [
                    {
                        "element": "Ge",
                        "occu": 1
                    }
                ],
                "abc": [
                    0.3701312,
                    0.44808011,
                    0.50278838
                ],
                "xyz": [
                    2.574260045731456,
                    4.7987950002177,
                    2.380396655479485
                ],
                "label": "Ge",
                "properties": {}
            },
            {
                "species": [
                    {
                        "element": "Ge",
                        "occu": 1
                    }
                ],
                "abc": [
                    0.6298688,
                    0.55191989,
                    0.00278838
                ],
                "xyz": [
                    4.380733334268545,
                    5.9108859097823,
                    0.013201280479485001
                ],
                "label": "Ge",
                "properties": {}
            },
            {
                "species": [
                    {
                        "element": "Ge",
                        "occu": 1
                    }
                ],
                "abc": [
                    0.1298688,
                    0.94808011,
                    0.00278838
                ],
                "xyz": [
                    0.9032366442685441,
                    10.1536354552177,
                    0.013201280479485001
                ],
                "label": "Ge",
                "properties": {}
            },
            {
                "species": [
                    {
                        "element": "Ge",
                        "occu": 1
                    }
                ],
                "abc": [
                    0.8701312,
                    0.05191989,
                    0.50278838
                ],
                "xyz": [
                    6.051756735731456,
                    0.5560454547822999,
                    2.380396655479485
                ],
                "label": "Ge",
                "properties": {}
            },
            {
                "species": [
                    {
                        "element": "O",
                        "occu": 1
                    }
                ],
                "abc": [
                    0.91227877,
                    0.03148984,
                    0.11802507
                ],
                "xyz": [
                    6.344892806064543,
                    0.3372461383069544,
                    0.5587767996761025
                ],
                "label": "O",
                "properties": {}
            },
            {
                "species": [
                    {
                        "element": "O",
                        "occu": 1
                    }
                ],
                "abc": [
                    0.16024752,
                    0.53696631,
                    0.56091092
                ],
                "xyz": [
                    1.1145204407614178,
                    5.750737839520141,
                    2.65557147122199
                ],
                "label": "O",
                "properties": {}
            },
            {
                "species": [
                    {
                        "element": "O",
                        "occu": 1
                    }
                ],
                "abc": [
                    0.86851367,
                    0.2120936,
                    0.56614068
                ],
                "xyz": [
                    6.040506825289505,
                    2.2714547790531756,
                    2.68033119859071
                ],
                "label": "O",
                "properties": {}
            },
            {
                "species": [
                    {
                        "element": "O",
                        "occu": 1
                    }
                ],
                "abc": [
                    0.58772123,
                    0.53148984,
                    0.61802507
                ],
                "xyz": [
                    4.087597263935457,
                    5.692086593306954,
                    2.9259721746761023
                ],
                "label": "O",
                "properties": {}
            },
            {
                "species": [
                    {
                        "element": "O",
                        "occu": 1
                    }
                ],
                "abc": [
                    0.41227877,
                    0.46851016,
                    0.11802507
                ],
                "xyz": [
                    2.8673961160645427,
                    5.017594316693045,
                    0.5587767996761025
                ],
                "label": "O",
                "properties": {}
            },
            {
                "species": [
                    {
                        "element": "O",
                        "occu": 1
                    }
                ],
                "abc": [
                    0.63148633,
                    0.7120936,
                    0.06614068
                ],
                "xyz": [
                    4.391983244710495,
                    7.626295234053176,
                    0.31313582359070996
                ],
                "label": "O",
                "properties": {}
            },
            {
                "species": [
                    {
                        "element": "O",
                        "occu": 1
                    }
                ],
                "abc": [
                    0.08772123,
                    0.96851016,
                    0.61802507
                ],
                "xyz": [
                    0.6101005739354574,
                    10.372434771693046,
                    2.9259721746761023
                ],
                "label": "O",
                "properties": {}
            },
            {
                "species": [
                    {
                        "element": "O",
                        "occu": 1
                    }
                ],
                "abc": [
                    0.33975248,
                    0.03696631,
                    0.06091092
                ],
                "xyz": [
                    2.362976249238583,
                    0.3958973845201421,
                    0.28837609622199
                ],
                "label": "O",
                "properties": {}
            },
            {
                "species": [
                    {
                        "element": "O",
                        "occu": 1
                    }
                ],
                "abc": [
                    0.66024752,
                    0.96303369,
                    0.56091092
                ],
                "xyz": [
                    4.592017130761418,
                    10.313783525479858,
                    2.65557147122199
                ],
                "label": "O",
                "properties": {}
            },
            {
                "species": [
                    {
                        "element": "O",
                        "occu": 1
                    }
                ],
                "abc": [
                    0.36851367,
                    0.2879064,
                    0.56614068
                ],
                "xyz": [
                    2.5630101352895047,
                    3.083385675946824,
                    2.68033119859071
                ],
                "label": "O",
                "properties": {}
            },
            {
                "species": [
                    {
                        "element": "O",
                        "occu": 1
                    }
                ],
                "abc": [
                    0.83975248,
                    0.46303369,
                    0.06091092
                ],
                "xyz": [
                    5.840472939238583,
                    4.958943070479858,
                    0.28837609622199
                ],
                "label": "O",
                "properties": {}
            },
            {
                "species": [
                    {
                        "element": "O",
                        "occu": 1
                    }
                ],
                "abc": [
                    0.13148633,
                    0.7879064,
                    0.06614068
                ],
                "xyz": [
                    0.9144865547104956,
                    8.438226130946823,
                    0.31313582359070996
                ],
                "label": "O",
                "properties": {}
            }
        ]
    },
    "spacegroup": {
        "source": "spglib",
        "symbol": "Pna2_1",
        "number": 33,
        "point_group": "mm2",
        "crystal_system": "orthorhombic",
        "hall": "P 2c -2n"
    },
    "dielectric": {
        "epsilon_ionic": [
            [
                7.15196846,
                -0.0,
                5.88e-06
            ],
            [
                -0.0,
                3.57744802,
                -1.999e-05
            ],
            [
                5.88e-06,
                -1.999e-05,
                6.55233935
            ]
        ],
        "epsilon_ionic_avg": 5.760585276666666,
        "epsilon_ionic_eig": [
            7.151968460057658,
            6.5523393500766645,
            3.5774480198656757
        ],
        "epsilon_electronic": [
            [
                2.8480099,
                0.0,
                0.0
            ],
            [
                0.0,
                2.88974237,
                0.0
            ],
            [
                0.0,
                0.0,
                2.92866172
            ]
        ],
        "epsilon_electronic_avg": 2.888804663333333,
        "epsilon_electronic_eig": [
            2.8480099,
            2.88974237,
            2.92866172
        ]
    },
    "phonon": {
        "lowest_freq": -0.21363809982824122,
        "frequency": [
            -0.21363809982824122,
            -0.05168904247889446,
            -0.04911151546661912,
            1.5257248959212137,
            1.8627218018175822,
            2.336251054576615,
            2.3496557556432327,
            2.569190772595229,
            2.7570855727861567,
            2.825854847815406,
            2.940191037663206,
            2.996529733083032,
            3.2237410106464828,
            3.399076115051242,
            3.5422990996910078,
            3.8612359453639566,
            4.001999837517618,
            4.0058442733193775,
            4.468506484254862,
            4.493330429899107,
            4.600191584149617,
            4.619570922304381,
            4.7793405836935365,
            4.934357278002664,
            5.161366345608175,
            5.370074599549225,
            5.511777307575937,
            5.640639603830946,
            5.785213635621891,
            5.8029681155785084,
            5.990332973502671,
            6.119013279586421,
            6.157603665851947,
            6.372187629654746,
            6.560620004631457,
            6.801187568306321,
            6.844751111395579,
            6.984739858605835,
            7.116638915735939,
            7.350503183804582,
            7.549668396778095,
            7.706785135806719,
            7.766001216339533,
            7.810917994859726,
            8.19989519568205,
            8.290535412982946,
            8.70905771007246,
            8.938274077547243,
            9.142950782598376,
            9.16338126702879,
            9.705178787070103,
            9.847712330000315,
            9.876487960061889,
            10.22183916909653,
            11.064854286134288,
            11.844672825258558,
            13.732395648374744,
            13.817771689412437,
            16.43551850368956,
            16.496915916752734,
            19.853116452873397,
            19.863515477312813,
            21.028271942823746,
            21.234133849153952,
            22.693814892255652,
            22.726121116042044,
            22.94282309818829,
            23.008022587649936,
            23.88784654599348,
            24.298934486700936,
            24.908450788140087,
            25.023316057895926
        ]
    },
    "born_effective_charge": {
        "avg_abs_trace": 1.7171458333333334,
        "tensors": [
            [
                [
                    1.17475,
                    0.06823,
                    0.00499
                ],
                [
                    0.15685,
                    1.22647,
                    0.00558
                ],
                [
                    0.00586,
                    0.02463,
                    1.15971
                ]
            ],
            [
                [
                    1.17475,
                    -0.06823,
                    0.00499
                ],
                [
                    -0.15685,
                    1.22648,
                    -0.0056
                ],
                [
                    0.00586,
                    -0.02463,
                    1.15971
                ]
            ],
            [
                [
                    1.17472,
                    -0.06822,
                    -0.00498
                ],
                [
                    -0.15685,
                    1.22647,
                    0.00558
                ],
                [
                    -0.00586,
                    0.02463,
                    1.15971
                ]
            ],
            [
                [
                    1.17472,
                    0.06822,
                    -0.00498
                ],
                [
                    0.15685,
                    1.22648,
                    -0.0056
                ],
                [
                    -0.00586,
                    -0.02463,
                    1.15971
                ]
            ],
            [
                [
                    1.12332,
                    -0.04208,
                    -0.00582
                ],
                [
                    -0.0182,
                    1.03842,
                    -0.01845
                ],
                [
                    -0.03405,
                    0.0177,
                    0.99694
                ]
            ],
            [
                [
                    1.12332,
                    0.04208,
                    0.00582
                ],
                [
                    0.0182,
                    1.03842,
                    -0.01845
                ],
                [
                    0.03405,
                    0.0177,
                    0.99694
                ]
            ],
            [
                [
                    1.12332,
                    0.04208,
                    -0.00582
                ],
                [
                    0.0182,
                    1.03842,
                    0.01845
                ],
                [
                    -0.03405,
                    -0.0177,
                    0.99694
                ]
            ],
            [
                [
                    1.12332,
                    -0.04208,
                    0.00582
                ],
                [
                    -0.0182,
                    1.03842,
                    0.01845
                ],
                [
                    0.03405,
                    -0.0177,
                    0.99694
                ]
            ],
            [
                [
                    2.72586,
                    0.1043,
                    -0.37532
                ],
                [
                    0.0291,
                    2.78117,
                    -0.18553
                ],
                [
                    0.25571,
                    0.11936,
                    3.22769
                ]
            ],
            [
                [
                    2.72586,
                    0.1043,
                    0.37532
                ],
                [
                    0.0291,
                    2.78116,
                    0.18553
                ],
                [
                    -0.25571,
                    -0.11936,
                    3.22769
                ]
            ],
            [
                [
                    2.72586,
                    -0.1043,
                    0.37532
                ],
                [
                    -0.0291,
                    2.78117,
                    -0.18553
                ],
                [
                    -0.25571,
                    0.11936,
                    3.22769
                ]
            ],
            [
                [
                    2.72586,
                    -0.1043,
                    -0.37532
                ],
                [
                    -0.0291,
                    2.78116,
                    0.18553
                ],
                [
                    0.25571,
                    -0.11936,
                    3.22769
                ]
            ],
            [
                [
                    -1.71777,
                    0.39354,
                    0.47464
                ],
                [
                    0.32901,
                    -1.32095,
                    -0.23894
                ],
                [
                    0.59721,
                    -0.36088,
                    -2.50464
                ]
            ],
            [
                [
                    -1.9785,
                    0.40313,
                    0.12501
                ],
                [
                    0.32045,
                    -1.61111,
                    -0.00805
                ],
                [
                    0.07813,
                    -0.06861,
                    -1.3779
                ]
            ],
            [
                [
                    -1.32765,
                    0.11298,
                    0.05551
                ],
                [
                    -0.02755,
                    -2.11399,
                    -0.14655
                ],
                [
                    -0.03179,
                    -0.13133,
                    -1.5018
                ]
            ],
            [
                [
                    -1.71777,
                    -0.39354,
                    -0.47464
                ],
                [
                    -0.32901,
                    -1.32095,
                    -0.23894
                ],
                [
                    -0.59721,
                    -0.36088,
                    -2.50464
                ]
            ],
            [
                [
                    -1.71777,
                    -0.39354,
                    0.47464
                ],
                [
                    -0.32901,
                    -1.32095,
                    0.23895
                ],
                [
                    0.59721,
                    0.36088,
                    -2.50464
                ]
            ],
            [
                [
                    -1.32765,
                    -0.11298,
                    -0.05551
                ],
                [
                    0.02755,
                    -2.11399,
                    -0.14655
                ],
                [
                    0.03179,
                    -0.13133,
                    -1.5018
                ]
            ],
            [
                [
                    -1.71777,
                    0.39354,
                    -0.47464
                ],
                [
                    0.32901,
                    -1.32095,
                    0.23895
                ],
                [
                    -0.59721,
                    0.36088,
                    -2.50464
                ]
            ],
            [
                [
                    -1.9785,
                    -0.40313,
                    -0.12501
                ],
                [
                    -0.32045,
                    -1.61111,
                    -0.00805
                ],
                [
                    -0.07813,
                    -0.06861,
                    -1.3779
                ]
            ],
            [
                [
                    -1.9785,
                    -0.40313,
                    0.12501
                ],
                [
                    -0.32046,
                    -1.61111,
                    0.00805
                ],
                [
                    0.07813,
                    0.06861,
                    -1.3779
                ]
            ],
            [
                [
                    -1.32765,
                    -0.11298,
                    0.05551
                ],
                [
                    0.02756,
                    -2.11399,
                    0.14655
                ],
                [
                    -0.03179,
                    0.13133,
                    -1.5018
                ]
            ],
            [
                [
                    -1.9785,
                    0.40313,
                    -0.12501
                ],
                [
                    0.32046,
                    -1.61111,
                    0.00805
                ],
                [
                    -0.07813,
                    0.06861,
                    -1.3779
                ]
            ],
            [
                [
                    -1.32765,
                    0.11298,
                    -0.05551
                ],
                [
                    -0.02756,
                    -2.11399,
                    0.14655
                ],
                [
                    0.03179,
                    0.13133,
                    -1.5018
                ]
            ]
        ]
    },
    "band_gap": 2.9852000000000003,
    "is_direct": false,
    "formula": "KNaGeO3"
}