{
    "mp_id": "mp-557506",
    "nelements": 4,
    "nsites": 24,
    "elements": [
        "Bi",
        "Ca",
        "Na",
        "O"
    ],
    "structure": {
        "@module": "pymatgen.core.structure",
        "@class": "Structure",
        "charge": null,
        "lattice": {
            "matrix": [
                [
                    0.0,
                    4.77972257,
                    9.93143909
                ],
                [
                    3.33406765,
                    0.0,
                    9.93143909
                ],
                [
                    3.33406765,
                    4.77972257,
                    0.0
                ]
            ],
            "a": 11.021761667018001,
            "b": 10.476139054687874,
            "c": 5.827671485331335,
            "alpha": 79.50930066254715,
            "beta": 69.16488146620854,
            "gamma": 31.32581787124431,
            "volume": 316.53320579832234
        },
        "sites": [
            {
                "species": [
                    {
                        "element": "Na",
                        "occu": 1
                    }
                ],
                "abc": [
                    0.58658933,
                    0.58658933,
                    0.91341067
                ],
                "xyz": [
                    5.0011014750000005,
                    7.169583854999999,
                    11.65135240347782
                ],
                "label": "Na",
                "properties": {}
            },
            {
                "species": [
                    {
                        "element": "Na",
                        "occu": 1
                    }
                ],
                "abc": [
                    0.91341067,
                    0.91341067,
                    0.58658933
                ],
                "xyz": [
                    5.0011014750000005,
                    7.169583854999999,
                    18.14296486652218
                ],
                "label": "Na",
                "properties": {}
            },
            {
                "species": [
                    {
                        "element": "Na",
                        "occu": 1
                    }
                ],
                "abc": [
                    0.66341067,
                    0.66341067,
                    0.33658933
                ],
                "xyz": [
                    3.3340676500000006,
                    4.77972257,
                    13.17724532152218
                ],
                "label": "Na",
                "properties": {}
            },
            {
                "species": [
                    {
                        "element": "Na",
                        "occu": 1
                    }
                ],
                "abc": [
                    0.33658933,
                    0.33658933,
                    0.66341067
                ],
                "xyz": [
                    3.3340676500000006,
                    4.77972257,
                    6.6856328584778195
                ],
                "label": "Na",
                "properties": {}
            },
            {
                "species": [
                    {
                        "element": "Na",
                        "occu": 1
                    }
                ],
                "abc": [
                    0.5,
                    0.5,
                    0.5
                ],
                "xyz": [
                    3.33406765,
                    4.77972257,
                    9.93143909
                ],
                "label": "Na",
                "properties": {}
            },
            {
                "species": [
                    {
                        "element": "Na",
                        "occu": 1
                    }
                ],
                "abc": [
                    0.75,
                    0.75,
                    0.75
                ],
                "xyz": [
                    5.0011014750000005,
                    7.169583854999999,
                    14.897158635
                ],
                "label": "Na",
                "properties": {}
            },
            {
                "species": [
                    {
                        "element": "Ca",
                        "occu": 1
                    }
                ],
                "abc": [
                    0.08059816,
                    0.08059816,
                    0.41940184
                ],
                "xyz": [
                    1.6670338250000003,
                    2.3898612850000003,
                    1.6009114336121488
                ],
                "label": "Ca",
                "properties": {}
            },
            {
                "species": [
                    {
                        "element": "Ca",
                        "occu": 1
                    }
                ],
                "abc": [
                    0.83059816,
                    0.83059816,
                    0.16940184
                ],
                "xyz": [
                    3.33406765,
                    4.77972257,
                    16.498070068612147
                ],
                "label": "Ca",
                "properties": {}
            },
            {
                "species": [
                    {
                        "element": "Ca",
                        "occu": 1
                    }
                ],
                "abc": [
                    0.41940184,
                    0.41940184,
                    0.08059816
                ],
                "xyz": [
                    1.6670338250000003,
                    2.3898612850000003,
                    8.33052765638785
                ],
                "label": "Ca",
                "properties": {}
            },
            {
                "species": [
                    {
                        "element": "Ca",
                        "occu": 1
                    }
                ],
                "abc": [
                    0.16940184,
                    0.16940184,
                    0.83059816
                ],
                "xyz": [
                    3.33406765,
                    4.77972257,
                    3.364808111387851
                ],
                "label": "Ca",
                "properties": {}
            },
            {
                "species": [
                    {
                        "element": "Bi",
                        "occu": 1
                    }
                ],
                "abc": [
                    0.25,
                    0.25,
                    0.25
                ],
                "xyz": [
                    1.667033825,
                    2.389861285,
                    4.965719545
                ],
                "label": "Bi",
                "properties": {}
            },
            {
                "species": [
                    {
                        "element": "Bi",
                        "occu": 1
                    }
                ],
                "abc": [
                    0.0,
                    0.0,
                    0.0
                ],
                "xyz": [
                    0.0,
                    0.0,
                    0.0
                ],
                "label": "Bi",
                "properties": {}
            },
            {
                "species": [
                    {
                        "element": "O",
                        "occu": 1
                    }
                ],
                "abc": [
                    0.39531869,
                    0.94923697,
                    0.09678727
                ],
                "xyz": [
                    3.4875155796998363,
                    2.3521299638435167,
                    13.35337264040475
                ],
                "label": "O",
                "properties": {}
            },
            {
                "species": [
                    {
                        "element": "O",
                        "occu": 1
                    }
                ],
                "abc": [
                    0.09678727,
                    0.55865608,
                    0.39531869
                ],
                "xyz": [
                    3.1806164195731905,
                    2.3521299638435167,
                    6.509495707470551
                ],
                "label": "O",
                "properties": {}
            },
            {
                "species": [
                    {
                        "element": "O",
                        "occu": 1
                    }
                ],
                "abc": [
                    0.55865608,
                    0.09678727,
                    0.94923697
                ],
                "xyz": [
                    3.4875155796998363,
                    7.207310444231138,
                    6.509495707470551
                ],
                "label": "O",
                "properties": {}
            },
            {
                "species": [
                    {
                        "element": "O",
                        "occu": 1
                    }
                ],
                "abc": [
                    0.15321273,
                    0.69134392,
                    0.85468131
                ],
                "xyz": [
                    5.15455270542681,
                    4.817453891156482,
                    8.387662927529448
                ],
                "label": "O",
                "properties": {}
            },
            {
                "species": [
                    {
                        "element": "O",
                        "occu": 1
                    }
                ],
                "abc": [
                    0.22503189,
                    0.77496811,
                    0.22503189
                ],
                "xyz": [
                    3.33406765,
                    2.1511800072055145,
                    9.93143909
                ],
                "label": "O",
                "properties": {}
            },
            {
                "species": [
                    {
                        "element": "O",
                        "occu": 1
                    }
                ],
                "abc": [
                    0.30076303,
                    0.85468131,
                    0.69134392
                ],
                "xyz": [
                    5.15455270542681,
                    4.741995980768861,
                    11.475225084595252
                ],
                "label": "O",
                "properties": {}
            },
            {
                "species": [
                    {
                        "element": "O",
                        "occu": 1
                    }
                ],
                "abc": [
                    0.02496811,
                    0.47503189,
                    0.02496811
                ],
                "xyz": [
                    1.667033825,
                    0.2386812777944854,
                    4.965719545
                ],
                "label": "O",
                "properties": {}
            },
            {
                "species": [
                    {
                        "element": "O",
                        "occu": 1
                    }
                ],
                "abc": [
                    0.47503189,
                    0.02496811,
                    0.47503189
                ],
                "xyz": [
                    1.667033825,
                    4.541041292205515,
                    4.965719545
                ],
                "label": "O",
                "properties": {}
            },
            {
                "species": [
                    {
                        "element": "O",
                        "occu": 1
                    }
                ],
                "abc": [
                    0.69134392,
                    0.15321273,
                    0.30076303
                ],
                "xyz": [
                    1.5135858953001642,
                    4.741995980768861,
                    8.387662927529448
                ],
                "label": "O",
                "properties": {}
            },
            {
                "species": [
                    {
                        "element": "O",
                        "occu": 1
                    }
                ],
                "abc": [
                    0.85468131,
                    0.30076303,
                    0.15321273
                ],
                "xyz": [
                    1.5135858953001642,
                    4.817453891156482,
                    11.475225084595252
                ],
                "label": "O",
                "properties": {}
            },
            {
                "species": [
                    {
                        "element": "O",
                        "occu": 1
                    }
                ],
                "abc": [
                    0.94923697,
                    0.39531869,
                    0.55865608
                ],
                "xyz": [
                    3.1806164195731905,
                    7.207310444231138,
                    13.35337264040475
                ],
                "label": "O",
                "properties": {}
            },
            {
                "species": [
                    {
                        "element": "O",
                        "occu": 1
                    }
                ],
                "abc": [
                    0.77496811,
                    0.22503189,
                    0.77496811
                ],
                "xyz": [
                    3.33406765,
                    7.408265132794485,
                    9.93143909
                ],
                "label": "O",
                "properties": {}
            }
        ]
    },
    "spacegroup": {
        "source": "spglib",
        "symbol": "Fddd",
        "number": 70,
        "point_group": "mmm",
        "crystal_system": "orthorhombic",
        "hall": "F 2 2 -1d"
    },
    "dielectric": {
        "epsilon_ionic": [
            [
                5.53284287,
                1e-08,
                -1e-08
            ],
            [
                1e-08,
                9.22048836,
                0.0
            ],
            [
                -1e-08,
                0.0,
                7.19362786
            ]
        ],
        "epsilon_ionic_avg": 7.315653029999997,
        "epsilon_ionic_eig": [
            5.53284287,
            9.220488359999996,
            7.193627859999999
        ],
        "epsilon_electronic": [
            [
                3.62748444,
                0.0,
                0.0
            ],
            [
                0.0,
                3.86645548,
                0.0
            ],
            [
                0.0,
                0.0,
                4.05078644
            ]
        ],
        "epsilon_electronic_avg": 3.84824212,
        "epsilon_electronic_eig": [
            3.62748444,
            3.86645548,
            4.05078644
        ]
    },
    "phonon": {
        "lowest_freq": -0.0449527880697458,
        "frequency": [
            -0.0449527880697458,
            -0.0302833795465812,
            -0.02132850160033825,
            2.384108734770348,
            2.8626769022783978,
            3.077874397397966,
            3.1694882757457137,
            3.7481678626432156,
            3.9593005830034644,
            4.077461050666487,
            4.2178637612798795,
            4.230320522011065,
            4.8721947327105815,
            4.921256478647203,
            5.005807785352463,
            5.333562828107596,
            5.353236687391172,
            5.475336238753598,
            5.687132120982362,
            5.803422891713057,
            5.827790719549629,
            5.8888836064388705,
            6.526560654362963,
            6.5488315767676095,
            6.624541506005088,
            6.738362517190084,
            6.837105426296993,
            6.969098243864129,
            7.177418593571613,
            7.1977110512307485,
            7.230492070152887,
            7.412045541257015,
            7.41404757886199,
            7.472108566930678,
            7.568045926783719,
            7.627021147223336,
            8.10849839138249,
            8.230931320572935,
            8.354772168557048,
            8.475298826547753,
            8.504732521980635,
            8.89981410219543,
            9.379969722543759,
            9.590254189631843,
            9.664939933670864,
            9.703150884729718,
            9.72396520504223,
            9.800058587506593,
            9.980429783707672,
            10.150921474465173,
            10.217913701599283,
            10.660906651732738,
            10.848344861947062,
            10.937029085151643,
            11.592096816876744,
            11.728500300396203,
            11.739241964520032,
            11.867505801496806,
            12.687875112161628,
            12.829372964871899,
            12.922991354334934,
            12.998001688635142,
            13.095359759190691,
            13.351101442892295,
            13.490396670896851,
            13.588213358866302,
            13.62427881742829,
            13.644759598459295,
            14.166652056967404,
            15.151508752276861,
            15.661371251827301,
            15.780825983175362
        ]
    },
    "born_effective_charge": {
        "avg_abs_trace": 1.9533175,
        "tensors": [
            [
                [
                    1.18985,
                    -0.22016,
                    4e-05
                ],
                [
                    -0.21361,
                    0.99975,
                    1e-05
                ],
                [
                    0.0,
                    0.0,
                    1.11823
                ]
            ],
            [
                [
                    1.18985,
                    0.22016,
                    -4e-05
                ],
                [
                    0.21361,
                    0.99975,
                    -1e-05
                ],
                [
                    0.0,
                    0.0,
                    1.11824
                ]
            ],
            [
                [
                    1.18985,
                    -0.22016,
                    -4e-05
                ],
                [
                    -0.21361,
                    0.99975,
                    -1e-05
                ],
                [
                    0.0,
                    0.0,
                    1.11824
                ]
            ],
            [
                [
                    1.18985,
                    0.22016,
                    4e-05
                ],
                [
                    0.21361,
                    0.99975,
                    1e-05
                ],
                [
                    0.0,
                    0.0,
                    1.11823
                ]
            ],
            [
                [
                    1.27812,
                    0.0,
                    0.0
                ],
                [
                    0.0,
                    1.32462,
                    -0.0
                ],
                [
                    0.0,
                    0.0,
                    0.7452
                ]
            ],
            [
                [
                    1.27812,
                    0.0,
                    0.0
                ],
                [
                    0.0,
                    1.32462,
                    -0.0
                ],
                [
                    0.0,
                    0.0,
                    0.7452
                ]
            ],
            [
                [
                    1.89531,
                    0.67658,
                    0.00032
                ],
                [
                    0.70363,
                    2.28585,
                    0.00012
                ],
                [
                    0.0,
                    0.0,
                    2.62634
                ]
            ],
            [
                [
                    1.89531,
                    -0.67658,
                    0.00032
                ],
                [
                    -0.70363,
                    2.28585,
                    0.00012
                ],
                [
                    0.0,
                    0.0,
                    2.62634
                ]
            ],
            [
                [
                    1.89531,
                    -0.67658,
                    -0.00032
                ],
                [
                    -0.70363,
                    2.28585,
                    -0.00012
                ],
                [
                    0.0,
                    0.0,
                    2.62633
                ]
            ],
            [
                [
                    1.89531,
                    0.67658,
                    -0.00032
                ],
                [
                    0.70363,
                    2.28585,
                    -0.00012
                ],
                [
                    0.0,
                    0.0,
                    2.62633
                ]
            ],
            [
                [
                    3.46274,
                    0.0,
                    0.0
                ],
                [
                    0.0,
                    3.85633,
                    -0.0
                ],
                [
                    0.0,
                    0.0,
                    4.26207
                ]
            ],
            [
                [
                    3.46274,
                    0.0,
                    0.0
                ],
                [
                    0.0,
                    3.85633,
                    -0.0
                ],
                [
                    0.0,
                    0.0,
                    4.26207
                ]
            ],
            [
                [
                    -1.8883,
                    -0.18658,
                    -0.34796
                ],
                [
                    -0.17898,
                    -1.79025,
                    -0.11966
                ],
                [
                    -0.25949,
                    -0.06519,
                    -2.20463
                ]
            ],
            [
                [
                    -1.88832,
                    0.18663,
                    -0.34794
                ],
                [
                    0.17898,
                    -1.79025,
                    0.11966
                ],
                [
                    -0.25951,
                    0.06514,
                    -2.20468
                ]
            ],
            [
                [
                    -1.8883,
                    0.18658,
                    0.34796
                ],
                [
                    0.17877,
                    -1.79026,
                    -0.11996
                ],
                [
                    0.25951,
                    -0.06514,
                    -2.20468
                ]
            ],
            [
                [
                    -1.8883,
                    0.18658,
                    -0.34796
                ],
                [
                    0.17877,
                    -1.79026,
                    0.11996
                ],
                [
                    -0.25949,
                    0.06519,
                    -2.20463
                ]
            ],
            [
                [
                    -1.67896,
                    -6e-05,
                    -0.51819
                ],
                [
                    0.0,
                    -2.29548,
                    0.0
                ],
                [
                    -0.47418,
                    0.0002,
                    -1.83889
                ]
            ],
            [
                [
                    -1.8883,
                    -0.18658,
                    0.34796
                ],
                [
                    -0.17898,
                    -1.79025,
                    0.11966
                ],
                [
                    0.25951,
                    0.06514,
                    -2.20468
                ]
            ],
            [
                [
                    -1.67896,
                    6e-05,
                    -0.51819
                ],
                [
                    0.0,
                    -2.29563,
                    0.0
                ],
                [
                    -0.47418,
                    -0.0002,
                    -1.83889
                ]
            ],
            [
                [
                    -1.67896,
                    -6e-05,
                    0.51819
                ],
                [
                    0.0,
                    -2.29548,
                    -0.0
                ],
                [
                    0.47418,
                    0.0002,
                    -1.83889
                ]
            ],
            [
                [
                    -1.88832,
                    0.18663,
                    0.34794
                ],
                [
                    0.17898,
                    -1.79025,
                    -0.11966
                ],
                [
                    0.25949,
                    -0.06519,
                    -2.20463
                ]
            ],
            [
                [
                    -1.88832,
                    -0.18663,
                    -0.34794
                ],
                [
                    -0.17877,
                    -1.79026,
                    -0.11996
                ],
                [
                    -0.25951,
                    -0.06514,
                    -2.20468
                ]
            ],
            [
                [
                    -1.88832,
                    -0.18663,
                    0.34794
                ],
                [
                    -0.17877,
                    -1.79026,
                    0.11996
                ],
                [
                    0.25949,
                    0.06519,
                    -2.20463
                ]
            ],
            [
                [
                    -1.67896,
                    6e-05,
                    0.51819
                ],
                [
                    -0.0,
                    -2.29563,
                    -0.0
                ],
                [
                    0.47418,
                    -0.0002,
                    -1.83889
                ]
            ]
        ]
    },
    "band_gap": 1.7003,
    "is_direct": false,
    "formula": "Na3Ca2BiO6"
}