{
    "mp_id": "mp-5840",
    "nelements": 3,
    "nsites": 8,
    "elements": [
        "Li",
        "O",
        "Sc"
    ],
    "structure": {
        "@module": "pymatgen.core.structure",
        "@class": "Structure",
        "charge": null,
        "lattice": {
            "matrix": [
                [
                    -2.08297217,
                    2.08297217,
                    4.58344845
                ],
                [
                    2.08297217,
                    -2.08297217,
                    4.58344845
                ],
                [
                    2.08297217,
                    2.08297217,
                    -4.58344845
                ]
            ],
            "a": 5.448444348233394,
            "b": 5.448444348233394,
            "c": 5.448444348233394,
            "alpha": 135.04682820816578,
            "beta": 135.04682820816578,
            "gamma": 65.45744773060667,
            "volume": 79.54617064526815
        },
        "sites": [
            {
                "species": [
                    {
                        "element": "Li",
                        "occu": 1
                    }
                ],
                "abc": [
                    0.0,
                    0.0,
                    0.0
                ],
                "xyz": [
                    0.0,
                    0.0,
                    0.0
                ],
                "label": "Li",
                "properties": {}
            },
            {
                "species": [
                    {
                        "element": "Li",
                        "occu": 1
                    }
                ],
                "abc": [
                    0.75,
                    0.25,
                    0.5
                ],
                "xyz": [
                    -2.220446049250313e-16,
                    2.0829721700000006,
                    2.291724225
                ],
                "label": "Li",
                "properties": {}
            },
            {
                "species": [
                    {
                        "element": "Sc",
                        "occu": 1
                    }
                ],
                "abc": [
                    0.25,
                    0.75,
                    0.5
                ],
                "xyz": [
                    2.0829721700000006,
                    -2.220446049250313e-16,
                    2.291724225
                ],
                "label": "Sc",
                "properties": {}
            },
            {
                "species": [
                    {
                        "element": "Sc",
                        "occu": 1
                    }
                ],
                "abc": [
                    0.5,
                    0.5,
                    0.0
                ],
                "xyz": [
                    0.0,
                    0.0,
                    4.58344845
                ],
                "label": "Sc",
                "properties": {}
            },
            {
                "species": [
                    {
                        "element": "O",
                        "occu": 1
                    }
                ],
                "abc": [
                    0.27027594,
                    0.27027594,
                    0.0
                ],
                "xyz": [
                    0.0,
                    0.0,
                    2.4775916765305857
                ],
                "label": "O",
                "properties": {}
            },
            {
                "species": [
                    {
                        "element": "O",
                        "occu": 1
                    }
                ],
                "abc": [
                    0.02027594,
                    0.52027594,
                    0.5
                ],
                "xyz": [
                    2.08297217,
                    0.0,
                    0.18586745153058626
                ],
                "label": "O",
                "properties": {}
            },
            {
                "species": [
                    {
                        "element": "O",
                        "occu": 1
                    }
                ],
                "abc": [
                    0.72972406,
                    0.72972406,
                    0.0
                ],
                "xyz": [
                    0.0,
                    0.0,
                    6.689305223469414
                ],
                "label": "O",
                "properties": {}
            },
            {
                "species": [
                    {
                        "element": "O",
                        "occu": 1
                    }
                ],
                "abc": [
                    0.47972406,
                    0.97972406,
                    0.5
                ],
                "xyz": [
                    2.08297217,
                    0.0,
                    4.397580998469413
                ],
                "label": "O",
                "properties": {}
            }
        ]
    },
    "spacegroup": {
        "source": "spglib",
        "symbol": "I4_1/amd",
        "number": 141,
        "point_group": "4/mmm",
        "crystal_system": "tetragonal",
        "hall": "I 4bw 2bw -1bw"
    },
    "dielectric": {
        "epsilon_ionic": [
            [
                13.08531105,
                1e-08,
                -0.0
            ],
            [
                1e-08,
                13.08534007,
                -1e-08
            ],
            [
                -0.0,
                -1e-08,
                30.20322129
            ]
        ],
        "epsilon_ionic_avg": 18.791290803333336,
        "epsilon_ionic_eig": [
            13.085311049996553,
            13.085340070003447,
            30.20322129
        ],
        "epsilon_electronic": [
            [
                4.34584122,
                0.0,
                0.0
            ],
            [
                0.0,
                4.34584122,
                0.0
            ],
            [
                0.0,
                0.0,
                4.26363437
            ]
        ],
        "epsilon_electronic_avg": 4.3184389366666665,
        "epsilon_electronic_eig": [
            4.34584122,
            4.34584122,
            4.26363437
        ]
    },
    "phonon": {
        "lowest_freq": -0.038844261469309756,
        "frequency": [
            -0.038844261469309756,
            -0.02165179180759775,
            -0.02165179180759775,
            4.519694744528192,
            4.868985568239291,
            7.033206639971466,
            7.033206639971466,
            8.661675406777789,
            8.661675406777789,
            9.443511327796035,
            9.443511327796035,
            11.402306415628942,
            11.516508060126121,
            11.584037427555314,
            11.584037427555314,
            11.858169199207868,
            11.858169199207868,
            12.993515134568288,
            13.364143736437576,
            14.17748499040261,
            14.17748499040261,
            15.18253110004888,
            15.607508472766852,
            15.607508472766852
        ]
    },
    "born_effective_charge": {
        "avg_abs_trace": 2.5108883333333334,
        "tensors": [
            [
                [
                    1.00526,
                    -0.0,
                    -1e-05
                ],
                [
                    -0.0,
                    1.00526,
                    -0.0
                ],
                [
                    -0.0,
                    -0.0,
                    1.09524
                ]
            ],
            [
                [
                    1.00526,
                    -0.0,
                    1e-05
                ],
                [
                    -0.0,
                    1.00526,
                    0.0
                ],
                [
                    -0.0,
                    -0.0,
                    1.09524
                ]
            ],
            [
                [
                    4.13235,
                    -0.0,
                    -6e-05
                ],
                [
                    -0.0,
                    4.13236,
                    0.0001
                ],
                [
                    -0.0,
                    -0.0,
                    3.69485
                ]
            ],
            [
                [
                    4.13235,
                    -0.0,
                    6e-05
                ],
                [
                    -0.0,
                    4.13236,
                    -0.0001
                ],
                [
                    -0.0,
                    -0.0,
                    3.69485
                ]
            ],
            [
                [
                    -3.55886,
                    -0.0,
                    7e-05
                ],
                [
                    0.0,
                    -1.57876,
                    0.00011
                ],
                [
                    -0.0,
                    0.0,
                    -2.39508
                ]
            ],
            [
                [
                    -1.57876,
                    0.0,
                    8e-05
                ],
                [
                    -0.0,
                    -3.55887,
                    0.00035
                ],
                [
                    0.0,
                    -0.0,
                    -2.39508
                ]
            ],
            [
                [
                    -1.57876,
                    -0.0,
                    -8e-05
                ],
                [
                    -0.0,
                    -3.55887,
                    -0.00035
                ],
                [
                    0.0,
                    -0.0,
                    -2.39501
                ]
            ],
            [
                [
                    -3.55886,
                    -0.0,
                    -7e-05
                ],
                [
                    0.0,
                    -1.57876,
                    -0.00011
                ],
                [
                    -0.0,
                    0.0,
                    -2.39501
                ]
            ]
        ]
    },
    "band_gap": 3.792,
    "is_direct": false,
    "formula": "LiScO2"
}