{
    "mp_id": "mp-541044",
    "nelements": 3,
    "nsites": 8,
    "elements": [
        "Cs",
        "O",
        "Y"
    ],
    "structure": {
        "@module": "pymatgen.core.structure",
        "@class": "Structure",
        "charge": null,
        "lattice": {
            "matrix": [
                [
                    3.50593265,
                    0.0,
                    0.0
                ],
                [
                    -1.75296683,
                    3.03622731,
                    0.0
                ],
                [
                    0.0,
                    0.0,
                    13.49497873
                ]
            ],
            "a": 3.50593265,
            "b": 3.505933397124094,
            "c": 13.49497873,
            "alpha": 90.0,
            "beta": 90.0,
            "gamma": 120.00000248032809,
            "volume": 143.6514637384634
        },
        "sites": [
            {
                "species": [
                    {
                        "element": "Cs",
                        "occu": 1
                    }
                ],
                "abc": [
                    0.333333,
                    0.666667,
                    0.25
                ],
                "xyz": [
                    -2.089633160284876e-06,
                    2.02415255207577,
                    3.3737446825
                ],
                "label": "Cs",
                "properties": {}
            },
            {
                "species": [
                    {
                        "element": "Cs",
                        "occu": 1
                    }
                ],
                "abc": [
                    0.666667,
                    0.333333,
                    0.75
                ],
                "xyz": [
                    1.7529679096331603,
                    1.01207475792423,
                    10.1212340475
                ],
                "label": "Cs",
                "properties": {}
            },
            {
                "species": [
                    {
                        "element": "Y",
                        "occu": 1
                    }
                ],
                "abc": [
                    0.0,
                    0.0,
                    0.0
                ],
                "xyz": [
                    0.0,
                    0.0,
                    0.0
                ],
                "label": "Y",
                "properties": {}
            },
            {
                "species": [
                    {
                        "element": "Y",
                        "occu": 1
                    }
                ],
                "abc": [
                    0.0,
                    0.0,
                    0.5
                ],
                "xyz": [
                    0.0,
                    0.0,
                    6.747489365
                ],
                "label": "Y",
                "properties": {}
            },
            {
                "species": [
                    {
                        "element": "O",
                        "occu": 1
                    }
                ],
                "abc": [
                    0.333333,
                    0.666667,
                    0.91715335
                ],
                "xyz": [
                    -2.089633160284876e-06,
                    2.02415255207577,
                    12.376964950398245
                ],
                "label": "O",
                "properties": {}
            },
            {
                "species": [
                    {
                        "element": "O",
                        "occu": 1
                    }
                ],
                "abc": [
                    0.333333,
                    0.666667,
                    0.58284665
                ],
                "xyz": [
                    -2.089633160284876e-06,
                    2.02415255207577,
                    7.865503144601755
                ],
                "label": "O",
                "properties": {}
            },
            {
                "species": [
                    {
                        "element": "O",
                        "occu": 1
                    }
                ],
                "abc": [
                    0.666667,
                    0.333333,
                    0.08284665
                ],
                "xyz": [
                    1.7529679096331603,
                    1.01207475792423,
                    1.1180137796017544
                ],
                "label": "O",
                "properties": {}
            },
            {
                "species": [
                    {
                        "element": "O",
                        "occu": 1
                    }
                ],
                "abc": [
                    0.666667,
                    0.333333,
                    0.41715335
                ],
                "xyz": [
                    1.7529679096331603,
                    1.01207475792423,
                    5.629475585398245
                ],
                "label": "O",
                "properties": {}
            }
        ]
    },
    "spacegroup": {
        "source": "spglib",
        "symbol": "P6_3/mmc",
        "number": 194,
        "point_group": "6/mmm",
        "crystal_system": "hexagonal",
        "hall": "-P 6c 2c"
    },
    "dielectric": {
        "epsilon_ionic": [
            [
                13.87565572,
                2.19e-06,
                -0.0
            ],
            [
                2.19e-06,
                13.87539991,
                -0.0
            ],
            [
                -0.0,
                -0.0,
                11.53494839
            ]
        ],
        "epsilon_ionic_avg": 13.095334673333333,
        "epsilon_ionic_eig": [
            13.875655738747305,
            13.875399891252695,
            11.53494839
        ],
        "epsilon_electronic": [
            [
                4.25930986,
                -7e-07,
                -0.0
            ],
            [
                -7e-07,
                4.25930974,
                -0.0
            ],
            [
                0.0,
                0.0,
                4.10107883
            ]
        ],
        "epsilon_electronic_avg": 4.206566143333333,
        "epsilon_electronic_eig": [
            4.259310502566723,
            4.2593090974332775,
            4.10107883
        ]
    },
    "phonon": {
        "lowest_freq": -0.041231890977875114,
        "frequency": [
            -0.041231890977875114,
            -0.01592769265962485,
            -0.015927689974362932,
            1.31334759357845,
            1.3133478113030883,
            1.3739629901550166,
            1.3739632178410202,
            1.9920124991186745,
            1.9920128303818065,
            3.353362782307457,
            3.644118142352428,
            3.874667757427148,
            6.914459519811579,
            6.9144606508911,
            6.992706258257537,
            6.9927074116312635,
            9.7286366687495,
            10.069248168414164,
            10.069249843177502,
            10.099758066112837,
            10.09975973581696,
            13.63452183014748,
            13.641478972325947,
            14.599083777025754
        ]
    },
    "born_effective_charge": {
        "avg_abs_trace": 2.5613954166666666,
        "tensors": [
            [
                [
                    1.09502,
                    1e-05,
                    0.0
                ],
                [
                    0.0,
                    1.09498,
                    0.0
                ],
                [
                    0.0,
                    -0.0,
                    1.97793
                ]
            ],
            [
                [
                    1.09502,
                    -1e-05,
                    0.0
                ],
                [
                    0.0,
                    1.09511,
                    0.0
                ],
                [
                    -0.0,
                    0.0,
                    1.97793
                ]
            ],
            [
                [
                    4.16296,
                    0.0,
                    0.0
                ],
                [
                    -0.0,
                    4.16287,
                    0.0
                ],
                [
                    -0.0,
                    0.0,
                    2.87454
                ]
            ],
            [
                [
                    4.16296,
                    0.0,
                    0.0
                ],
                [
                    -0.0,
                    4.16287,
                    -0.0
                ],
                [
                    0.0,
                    -0.0,
                    2.87454
                ]
            ],
            [
                [
                    -2.62899,
                    -0.00046,
                    -7e-05
                ],
                [
                    0.0,
                    -2.62887,
                    -0.00037
                ],
                [
                    0.0,
                    -0.0,
                    -2.42624
                ]
            ],
            [
                [
                    -2.62899,
                    -0.00046,
                    7e-05
                ],
                [
                    0.0,
                    -2.62887,
                    0.00037
                ],
                [
                    0.0,
                    0.0,
                    -2.42624
                ]
            ],
            [
                [
                    -2.62899,
                    0.00046,
                    7e-05
                ],
                [
                    0.0,
                    -2.62905,
                    0.00044
                ],
                [
                    -0.0,
                    -0.0,
                    -2.42624
                ]
            ],
            [
                [
                    -2.62899,
                    0.00046,
                    -7e-05
                ],
                [
                    0.0,
                    -2.62905,
                    -0.00044
                ],
                [
                    -0.0,
                    0.0,
                    -2.42624
                ]
            ]
        ]
    },
    "band_gap": 2.7841000000000005,
    "is_direct": false,
    "formula": "CsYO2"
}