{
    "mp_id": "mp-556258",
    "nelements": 5,
    "nsites": 30,
    "elements": [
        "Al",
        "Be",
        "Na",
        "O",
        "Si"
    ],
    "structure": {
        "@module": "pymatgen.core.structure",
        "@class": "Structure",
        "charge": null,
        "lattice": {
            "matrix": [
                [
                    6.82012038,
                    0.0,
                    0.0
                ],
                [
                    0.0,
                    7.17079687,
                    0.0
                ],
                [
                    0.0,
                    0.0,
                    7.28131973
                ]
            ],
            "a": 6.82012038,
            "b": 7.17079687,
            "c": 7.28131973,
            "alpha": 90.0,
            "beta": 90.0,
            "gamma": 90.0,
            "volume": 356.0980228388452
        },
        "sites": [
            {
                "species": [
                    {
                        "element": "Na",
                        "occu": 1
                    }
                ],
                "abc": [
                    0.24990245,
                    0.28800531,
                    0.32406788
                ],
                "xyz": [
                    1.704364792256931,
                    2.06522757549138,
                    2.359641848503272
                ],
                "label": "Na",
                "properties": {}
            },
            {
                "species": [
                    {
                        "element": "Na",
                        "occu": 1
                    }
                ],
                "abc": [
                    0.75009755,
                    0.71199469,
                    0.32406788
                ],
                "xyz": [
                    5.1157555877430685,
                    5.105569294508621,
                    2.359641848503272
                ],
                "label": "Na",
                "properties": {}
            },
            {
                "species": [
                    {
                        "element": "Na",
                        "occu": 1
                    }
                ],
                "abc": [
                    0.5,
                    0.0,
                    0.03357309
                ],
                "xyz": [
                    3.41006019,
                    0.0,
                    0.2444564026140657
                ],
                "label": "Na",
                "properties": {}
            },
            {
                "species": [
                    {
                        "element": "Na",
                        "occu": 1
                    }
                ],
                "abc": [
                    0.0,
                    0.5,
                    0.96642691
                ],
                "xyz": [
                    0.0,
                    3.585398435,
                    7.036863327385935
                ],
                "label": "Na",
                "properties": {}
            },
            {
                "species": [
                    {
                        "element": "Na",
                        "occu": 1
                    }
                ],
                "abc": [
                    0.74990245,
                    0.21199469,
                    0.67593212
                ],
                "xyz": [
                    5.1144249822569305,
                    1.5201708595086205,
                    4.921677881496728
                ],
                "label": "Na",
                "properties": {}
            },
            {
                "species": [
                    {
                        "element": "Na",
                        "occu": 1
                    }
                ],
                "abc": [
                    0.25009755,
                    0.78800531,
                    0.67593212
                ],
                "xyz": [
                    1.7056953977430689,
                    5.650626010491379,
                    4.921677881496728
                ],
                "label": "Na",
                "properties": {}
            },
            {
                "species": [
                    {
                        "element": "Be",
                        "occu": 1
                    }
                ],
                "abc": [
                    0.0,
                    0.5,
                    0.5702079
                ],
                "xyz": [
                    0.0,
                    3.585398435,
                    4.151866032471867
                ],
                "label": "Be",
                "properties": {}
            },
            {
                "species": [
                    {
                        "element": "Be",
                        "occu": 1
                    }
                ],
                "abc": [
                    0.5,
                    0.0,
                    0.4297921
                ],
                "xyz": [
                    3.41006019,
                    0.0,
                    3.129453697528133
                ],
                "label": "Be",
                "properties": {}
            },
            {
                "species": [
                    {
                        "element": "Al",
                        "occu": 1
                    }
                ],
                "abc": [
                    0.0,
                    0.0,
                    0.03603145
                ],
                "xyz": [
                    0.0,
                    0.0,
                    0.2623565077855085
                ],
                "label": "Al",
                "properties": {}
            },
            {
                "species": [
                    {
                        "element": "Al",
                        "occu": 1
                    }
                ],
                "abc": [
                    0.5,
                    0.5,
                    0.96396855
                ],
                "xyz": [
                    3.41006019,
                    3.585398435,
                    7.0189632222144915
                ],
                "label": "Al",
                "properties": {}
            },
            {
                "species": [
                    {
                        "element": "Si",
                        "occu": 1
                    }
                ],
                "abc": [
                    0.7643334,
                    0.3037981,
                    0.26010879
                ],
                "xyz": [
                    5.212845798454692,
                    2.178474464591947,
                    1.8939352645734264
                ],
                "label": "Si",
                "properties": {}
            },
            {
                "species": [
                    {
                        "element": "Si",
                        "occu": 1
                    }
                ],
                "abc": [
                    0.2643334,
                    0.1962019,
                    0.73989121
                ],
                "xyz": [
                    1.8027856084546918,
                    1.4069239704080532,
                    5.387384465426574
                ],
                "label": "Si",
                "properties": {}
            },
            {
                "species": [
                    {
                        "element": "Si",
                        "occu": 1
                    }
                ],
                "abc": [
                    0.2356666,
                    0.6962019,
                    0.26010879
                ],
                "xyz": [
                    1.607274581545308,
                    4.9923224054080535,
                    1.8939352645734264
                ],
                "label": "Si",
                "properties": {}
            },
            {
                "species": [
                    {
                        "element": "Si",
                        "occu": 1
                    }
                ],
                "abc": [
                    0.7356666,
                    0.8037981,
                    0.73989121
                ],
                "xyz": [
                    5.017334771545308,
                    5.763872899591947,
                    5.387384465426574
                ],
                "label": "Si",
                "properties": {}
            },
            {
                "species": [
                    {
                        "element": "O",
                        "occu": 1
                    }
                ],
                "abc": [
                    0.04044478,
                    0.80099235,
                    0.17251282
                ],
                "xyz": [
                    0.2758382683426164,
                    5.743753436273945,
                    1.2561209999439387
                ],
                "label": "O",
                "properties": {}
            },
            {
                "species": [
                    {
                        "element": "O",
                        "occu": 1
                    }
                ],
                "abc": [
                    0.17618346,
                    0.58446594,
                    0.44538282
                ],
                "xyz": [
                    1.2015924061649146,
                    4.191086533173608,
                    3.2429747146690384
                ],
                "label": "O",
                "properties": {}
            },
            {
                "species": [
                    {
                        "element": "O",
                        "occu": 1
                    }
                ],
                "abc": [
                    0.79400254,
                    0.96417087,
                    0.89552906
                ],
                "xyz": [
                    5.415192904825765,
                    6.913873456741177,
                    6.520633413366354
                ],
                "label": "O",
                "properties": {}
            },
            {
                "species": [
                    {
                        "element": "O",
                        "occu": 1
                    }
                ],
                "abc": [
                    0.20599746,
                    0.03582913,
                    0.89552906
                ],
                "xyz": [
                    1.4049274751742347,
                    0.2569234132588231,
                    6.520633413366354
                ],
                "label": "O",
                "properties": {}
            },
            {
                "species": [
                    {
                        "element": "O",
                        "occu": 1
                    }
                ],
                "abc": [
                    0.4204687,
                    0.83521819,
                    0.28999139
                ],
                "xyz": [
                    2.8676471500221057,
                    5.989179982619065,
                    2.111520029537125
                ],
                "label": "O",
                "properties": {}
            },
            {
                "species": [
                    {
                        "element": "O",
                        "occu": 1
                    }
                ],
                "abc": [
                    0.45955522,
                    0.30099235,
                    0.82748718
                ],
                "xyz": [
                    3.1342219216573834,
                    2.1583550012739448,
                    6.025198730056061
                ],
                "label": "O",
                "properties": {}
            },
            {
                "species": [
                    {
                        "element": "O",
                        "occu": 1
                    }
                ],
                "abc": [
                    0.95955522,
                    0.19900765,
                    0.17251282
                ],
                "xyz": [
                    6.544282111657384,
                    1.4270434337260556,
                    1.2561209999439387
                ],
                "label": "O",
                "properties": {}
            },
            {
                "species": [
                    {
                        "element": "O",
                        "occu": 1
                    }
                ],
                "abc": [
                    0.32381654,
                    0.08446594,
                    0.55461718
                ],
                "xyz": [
                    2.208467783835085,
                    0.6056880981736078,
                    4.038345015330962
                ],
                "label": "O",
                "properties": {}
            },
            {
                "species": [
                    {
                        "element": "O",
                        "occu": 1
                    }
                ],
                "abc": [
                    0.0795313,
                    0.33521819,
                    0.71000861
                ],
                "xyz": [
                    0.5424130399778939,
                    2.4037815476190656,
                    5.1697997004628755
                ],
                "label": "O",
                "properties": {}
            },
            {
                "species": [
                    {
                        "element": "O",
                        "occu": 1
                    }
                ],
                "abc": [
                    0.67618346,
                    0.91553406,
                    0.55461718
                ],
                "xyz": [
                    4.611652596164914,
                    6.5651087718263925,
                    4.038345015330962
                ],
                "label": "O",
                "properties": {}
            },
            {
                "species": [
                    {
                        "element": "O",
                        "occu": 1
                    }
                ],
                "abc": [
                    0.54044478,
                    0.69900765,
                    0.82748718
                ],
                "xyz": [
                    3.6858984583426158,
                    5.0124418687260555,
                    6.025198730056061
                ],
                "label": "O",
                "properties": {}
            },
            {
                "species": [
                    {
                        "element": "O",
                        "occu": 1
                    }
                ],
                "abc": [
                    0.82381654,
                    0.41553406,
                    0.44538282
                ],
                "xyz": [
                    5.618527973835085,
                    2.979710336826392,
                    3.2429747146690384
                ],
                "label": "O",
                "properties": {}
            },
            {
                "species": [
                    {
                        "element": "O",
                        "occu": 1
                    }
                ],
                "abc": [
                    0.29400254,
                    0.53582913,
                    0.10447094
                ],
                "xyz": [
                    2.005132714825765,
                    3.8423218482588233,
                    0.7606863166336462
                ],
                "label": "O",
                "properties": {}
            },
            {
                "species": [
                    {
                        "element": "O",
                        "occu": 1
                    }
                ],
                "abc": [
                    0.5795313,
                    0.16478181,
                    0.28999139
                ],
                "xyz": [
                    3.9524732299778935,
                    1.1816168873809347,
                    2.111520029537125
                ],
                "label": "O",
                "properties": {}
            },
            {
                "species": [
                    {
                        "element": "O",
                        "occu": 1
                    }
                ],
                "abc": [
                    0.70599746,
                    0.46417087,
                    0.10447094
                ],
                "xyz": [
                    4.814987665174234,
                    3.328475021741177,
                    0.7606863166336462
                ],
                "label": "O",
                "properties": {}
            },
            {
                "species": [
                    {
                        "element": "O",
                        "occu": 1
                    }
                ],
                "abc": [
                    0.9204687,
                    0.66478181,
                    0.71000861
                ],
                "xyz": [
                    6.277707340022106,
                    4.767015322380935,
                    5.1697997004628755
                ],
                "label": "O",
                "properties": {}
            }
        ]
    },
    "spacegroup": {
        "source": "spglib",
        "symbol": "P2_12_12",
        "number": 18,
        "point_group": "222",
        "crystal_system": "orthorhombic",
        "hall": "P 2 2ab"
    },
    "dielectric": {
        "epsilon_ionic": [
            [
                3.35117206,
                -1e-08,
                -0.0
            ],
            [
                -1e-08,
                3.78613772,
                -0.0
            ],
            [
                -0.0,
                -0.0,
                3.05854837
            ]
        ],
        "epsilon_ionic_avg": 3.3986193833333336,
        "epsilon_ionic_eig": [
            3.3511720599999997,
            3.7861377200000006,
            3.05854837
        ],
        "epsilon_electronic": [
            [
                2.46881934,
                0.0,
                0.0
            ],
            [
                0.0,
                2.48236253,
                0.0
            ],
            [
                0.0,
                0.0,
                2.49203012
            ]
        ],
        "epsilon_electronic_avg": 2.4810706633333335,
        "epsilon_electronic_eig": [
            2.46881934,
            2.48236253,
            2.49203012
        ]
    },
    "phonon": {
        "lowest_freq": -0.20093977365103732,
        "frequency": [
            -0.20093977365103732,
            -0.19630005193131003,
            -0.17049203389576115,
            2.8379439188223534,
            3.0391539085594785,
            3.3937880330621186,
            3.519521262083094,
            3.7776741959519855,
            3.8445457090755872,
            4.3095345531408515,
            4.330316988876173,
            4.596841321293562,
            4.6083467355206125,
            5.050670598376237,
            5.088203322581823,
            5.2548875678751745,
            5.402223964938378,
            5.422735410431848,
            5.624996209806643,
            5.883099835560485,
            6.004757830726963,
            6.234098407134353,
            6.293400254435005,
            6.654088260893483,
            6.671286924619454,
            6.967826486523543,
            7.0990874473271495,
            7.152988911293818,
            7.564736747024266,
            7.654513113641266,
            7.837349866430544,
            8.005727346276398,
            8.460325624095203,
            8.538705175012844,
            8.56964909373011,
            8.70236948578674,
            8.91100888113435,
            9.324006883275699,
            9.39402425771432,
            9.619277698744071,
            10.080224556508782,
            10.09969994087844,
            10.268466928312131,
            10.367672742265276,
            10.871644307751373,
            11.035427392433448,
            11.372311830272508,
            11.536835141828877,
            11.822878070251678,
            11.843128978971446,
            12.116541281653085,
            12.808512026484088,
            12.853773052779902,
            13.238469963873134,
            13.569873760703981,
            13.717438822153596,
            14.101030689268581,
            14.751425254672979,
            15.205999818251192,
            16.046912020863072,
            16.67529219193107,
            17.537831380846594,
            17.805636250153448,
            18.16573036533733,
            18.852795087281606,
            19.994510196578407,
            20.035600869691518,
            20.466087956942026,
            21.57321529826156,
            21.62312738843574,
            21.68061768804668,
            22.156663683530034,
            22.191221801450784,
            22.39043176843389,
            26.483859817303,
            26.578912867286107,
            26.672950753743255,
            27.80796935440689,
            27.810729795857437,
            27.885723245063115,
            27.902976789401063,
            28.333020303286887,
            28.65685197509466,
            29.072348536381092,
            29.20776849854853,
            29.238757475562355,
            29.283252641245202,
            29.361446331897024,
            30.817490547790836,
            32.185233502475526
        ]
    },
    "born_effective_charge": {
        "avg_abs_trace": 1.787894888888889,
        "tensors": [
            [
                [
                    1.07643,
                    -0.04821,
                    -0.00471
                ],
                [
                    -0.03881,
                    1.03264,
                    -0.03113
                ],
                [
                    -0.00409,
                    -0.05206,
                    1.03535
                ]
            ],
            [
                [
                    1.07643,
                    -0.04822,
                    0.00471
                ],
                [
                    -0.03881,
                    1.03264,
                    0.03113
                ],
                [
                    0.00409,
                    0.05206,
                    1.03535
                ]
            ],
            [
                [
                    0.98298,
                    -0.00964,
                    0.0
                ],
                [
                    -0.02566,
                    1.03733,
                    -0.0
                ],
                [
                    0.0,
                    0.0,
                    1.00613
                ]
            ],
            [
                [
                    0.98298,
                    0.00964,
                    -0.0
                ],
                [
                    0.02566,
                    1.03733,
                    0.0
                ],
                [
                    0.0,
                    0.0,
                    1.00613
                ]
            ],
            [
                [
                    1.07643,
                    0.04821,
                    0.00471
                ],
                [
                    0.03881,
                    1.03264,
                    -0.03113
                ],
                [
                    0.00409,
                    -0.05206,
                    1.03535
                ]
            ],
            [
                [
                    1.07643,
                    0.04822,
                    -0.00471
                ],
                [
                    0.03881,
                    1.03264,
                    0.03113
                ],
                [
                    -0.00409,
                    0.05206,
                    1.03535
                ]
            ],
            [
                [
                    1.83628,
                    -0.19624,
                    1e-05
                ],
                [
                    0.08137,
                    1.93525,
                    -0.0
                ],
                [
                    0.0,
                    0.0,
                    2.06094
                ]
            ],
            [
                [
                    1.83628,
                    0.19624,
                    -1e-05
                ],
                [
                    -0.08137,
                    1.93525,
                    0.0
                ],
                [
                    0.0,
                    0.0,
                    2.06091
                ]
            ],
            [
                [
                    2.49774,
                    -0.32886,
                    0.0
                ],
                [
                    0.19644,
                    2.64594,
                    -0.0
                ],
                [
                    0.0,
                    0.0,
                    2.5946
                ]
            ],
            [
                [
                    2.49774,
                    0.32886,
                    -0.0
                ],
                [
                    -0.19644,
                    2.64594,
                    0.0
                ],
                [
                    0.0,
                    0.0,
                    2.59459
                ]
            ],
            [
                [
                    2.88538,
                    0.01984,
                    0.23099
                ],
                [
                    -0.00025,
                    2.87692,
                    0.12401
                ],
                [
                    -0.14718,
                    -0.04223,
                    2.9085
                ]
            ],
            [
                [
                    2.88538,
                    -0.01984,
                    -0.23099
                ],
                [
                    0.00024,
                    2.87693,
                    0.12401
                ],
                [
                    0.14714,
                    -0.04217,
                    2.90854
                ]
            ],
            [
                [
                    2.88535,
                    0.01982,
                    -0.231
                ],
                [
                    -0.00024,
                    2.87693,
                    -0.12401
                ],
                [
                    0.14718,
                    0.04223,
                    2.9085
                ]
            ],
            [
                [
                    2.88535,
                    -0.01982,
                    0.231
                ],
                [
                    0.00025,
                    2.87692,
                    -0.12401
                ],
                [
                    -0.14714,
                    0.04217,
                    2.90854
                ]
            ],
            [
                [
                    -1.76161,
                    0.45269,
                    -0.36634
                ],
                [
                    0.40171,
                    -1.77544,
                    0.49037
                ],
                [
                    -0.39588,
                    0.4504,
                    -1.52679
                ]
            ],
            [
                [
                    -1.53671,
                    -0.31026,
                    0.48708
                ],
                [
                    -0.3391,
                    -1.49698,
                    0.47218
                ],
                [
                    0.42727,
                    0.4744,
                    -1.95711
                ]
            ],
            [
                [
                    -1.59114,
                    -0.23308,
                    -0.48411
                ],
                [
                    -0.29501,
                    -1.64395,
                    -0.49567
                ],
                [
                    -0.381,
                    -0.48221,
                    -1.78948
                ]
            ],
            [
                [
                    -1.59124,
                    -0.23318,
                    0.48406
                ],
                [
                    -0.295,
                    -1.644,
                    0.49566
                ],
                [
                    0.381,
                    0.48221,
                    -1.78948
                ]
            ],
            [
                [
                    -1.73065,
                    -0.55912,
                    -0.19418
                ],
                [
                    -0.49959,
                    -1.80241,
                    -0.34607
                ],
                [
                    -0.27752,
                    -0.41191,
                    -1.50126
                ]
            ],
            [
                [
                    -1.76178,
                    -0.45262,
                    -0.36642
                ],
                [
                    -0.40171,
                    -1.77544,
                    -0.49037
                ],
                [
                    -0.39579,
                    -0.45038,
                    -1.52677
                ]
            ],
            [
                [
                    -1.76178,
                    0.45262,
                    0.36642
                ],
                [
                    0.40192,
                    -1.77545,
                    -0.49042
                ],
                [
                    0.39588,
                    -0.4504,
                    -1.52679
                ]
            ],
            [
                [
                    -1.53672,
                    0.31021,
                    0.48707
                ],
                [
                    0.3391,
                    -1.49698,
                    -0.47218
                ],
                [
                    0.42713,
                    -0.4744,
                    -1.95712
                ]
            ],
            [
                [
                    -1.73074,
                    0.55911,
                    -0.1941
                ],
                [
                    0.49959,
                    -1.80241,
                    0.34607
                ],
                [
                    -0.27748,
                    0.41185,
                    -1.50137
                ]
            ],
            [
                [
                    -1.53671,
                    0.31026,
                    -0.48708
                ],
                [
                    0.33912,
                    -1.49706,
                    0.47221
                ],
                [
                    -0.42713,
                    0.4744,
                    -1.95712
                ]
            ],
            [
                [
                    -1.76161,
                    -0.45269,
                    0.36634
                ],
                [
                    -0.40192,
                    -1.77545,
                    0.49042
                ],
                [
                    0.39579,
                    0.45038,
                    -1.52677
                ]
            ],
            [
                [
                    -1.53672,
                    -0.31021,
                    -0.48707
                ],
                [
                    -0.33912,
                    -1.49706,
                    -0.47221
                ],
                [
                    -0.42727,
                    -0.4744,
                    -1.95711
                ]
            ],
            [
                [
                    -1.59114,
                    0.23308,
                    0.48411
                ],
                [
                    0.295,
                    -1.644,
                    -0.49566
                ],
                [
                    0.38098,
                    -0.48223,
                    -1.7895
                ]
            ],
            [
                [
                    -1.73074,
                    -0.55911,
                    0.1941
                ],
                [
                    -0.49955,
                    -1.80236,
                    0.3461
                ],
                [
                    0.27752,
                    0.41191,
                    -1.50126
                ]
            ],
            [
                [
                    -1.59124,
                    0.23318,
                    -0.48406
                ],
                [
                    0.29501,
                    -1.64395,
                    0.49567
                ],
                [
                    -0.38098,
                    0.48223,
                    -1.7895
                ]
            ],
            [
                [
                    -1.73065,
                    0.55912,
                    0.19418
                ],
                [
                    0.49955,
                    -1.80236,
                    -0.3461
                ],
                [
                    0.27748,
                    -0.41185,
                    -1.50137
                ]
            ]
        ]
    },
    "band_gap": 4.437799999999999,
    "is_direct": false,
    "formula": "Na3BeAl(SiO4)2"
}