{
    "mp_id": "mp-557632",
    "nelements": 4,
    "nsites": 14,
    "elements": [
        "B",
        "K",
        "Li",
        "O"
    ],
    "structure": {
        "@module": "pymatgen.core.structure",
        "@class": "Structure",
        "charge": null,
        "lattice": {
            "matrix": [
                [
                    4.37936746,
                    -3.05094207,
                    -0.00101368
                ],
                [
                    4.37936746,
                    3.05094207,
                    -0.00101368
                ],
                [
                    -1.61724166,
                    0.0,
                    7.20139092
                ]
            ],
            "a": 5.337331532868263,
            "b": 5.337331532868263,
            "c": 7.380752114080109,
            "alpha": 100.36822447471077,
            "beta": 100.36822447471077,
            "gamma": 69.7269762825136,
            "volume": 192.4283939934809
        },
        "sites": [
            {
                "species": [
                    {
                        "element": "K",
                        "occu": 1
                    }
                ],
                "abc": [
                    0.50758047,
                    0.84084859,
                    0.67682999
                ],
                "xyz": [
                    4.810668690917003,
                    1.0167817278978086,
                    4.87275046880015
                ],
                "label": "K",
                "properties": {}
            },
            {
                "species": [
                    {
                        "element": "K",
                        "occu": 1
                    }
                ],
                "abc": [
                    0.83545686,
                    0.16454314,
                    0.5
                ],
                "xyz": [
                    3.5707466300000004,
                    -2.0469188936882,
                    3.59968178
                ],
                "label": "K",
                "properties": {}
            },
            {
                "species": [
                    {
                        "element": "K",
                        "occu": 1
                    }
                ],
                "abc": [
                    0.00288446,
                    0.99711554,
                    0.0
                ],
                "xyz": [
                    4.379367460000001,
                    3.0333414292735355,
                    -0.00101368
                ],
                "label": "K",
                "properties": {}
            },
            {
                "species": [
                    {
                        "element": "K",
                        "occu": 1
                    }
                ],
                "abc": [
                    0.15915141,
                    0.49241953,
                    0.32317001
                ],
                "xyz": [
                    2.3308245690829956,
                    1.0167817278978082,
                    2.32661309119985
                ],
                "label": "K",
                "properties": {}
            },
            {
                "species": [
                    {
                        "element": "Li",
                        "occu": 1
                    }
                ],
                "abc": [
                    0.45883231,
                    0.27037903,
                    0.03192407
                ],
                "xyz": [
                    3.1418554778982406,
                    -0.5749600401814895,
                    0.22915852087631317
                ],
                "label": "Li",
                "properties": {}
            },
            {
                "species": [
                    {
                        "element": "Li",
                        "occu": 1
                    }
                ],
                "abc": [
                    0.72962097,
                    0.54116769,
                    0.96807593
                ],
                "xyz": [
                    3.99963778210176,
                    -0.5749600401814896,
                    6.9702050391236865
                ],
                "label": "Li",
                "properties": {}
            },
            {
                "species": [
                    {
                        "element": "B",
                        "occu": 1
                    }
                ],
                "abc": [
                    0.21379335,
                    0.49031697,
                    0.78400076
                ],
                "xyz": [
                    1.8156391331145258,
                    0.8436575456066936,
                    5.645182211787921
                ],
                "label": "B",
                "properties": {}
            },
            {
                "species": [
                    {
                        "element": "B",
                        "occu": 1
                    }
                ],
                "abc": [
                    0.50968303,
                    0.78620665,
                    0.21599924
                ],
                "xyz": [
                    5.325854126885474,
                    0.8436575456066933,
                    1.5541813482120785
                ],
                "label": "B",
                "properties": {}
            },
            {
                "species": [
                    {
                        "element": "O",
                        "occu": 1
                    }
                ],
                "abc": [
                    0.49543901,
                    0.37081206,
                    0.78891462
                ],
                "xyz": [
                    2.5177661585011126,
                    -0.3802296048107865,
                    5.680404479738613
                ],
                "label": "O",
                "properties": {}
            },
            {
                "species": [
                    {
                        "element": "O",
                        "occu": 1
                    }
                ],
                "abc": [
                    0.62918794,
                    0.50456099,
                    0.21108538
                ],
                "xyz": [
                    4.623727101498886,
                    -0.3802296048107865,
                    1.5189590802613873
                ],
                "label": "O",
                "properties": {}
            },
            {
                "species": [
                    {
                        "element": "O",
                        "occu": 1
                    }
                ],
                "abc": [
                    0.06221008,
                    0.67503743,
                    0.66494261
                ],
                "xyz": [
                    2.153304864858892,
                    1.8697007437616144,
                    4.787764340919164
                ],
                "label": "O",
                "properties": {}
            },
            {
                "species": [
                    {
                        "element": "O",
                        "occu": 1
                    }
                ],
                "abc": [
                    0.5759234,
                    0.90592788,
                    0.08465254
                ],
                "xyz": [
                    6.352667661878533,
                    1.0068245513204737,
                    0.6081139099054264
                ],
                "label": "O",
                "properties": {}
            },
            {
                "species": [
                    {
                        "element": "O",
                        "occu": 1
                    }
                ],
                "abc": [
                    0.09407212,
                    0.4240766,
                    0.91534746
                ],
                "xyz": [
                    0.788825598121468,
                    1.0068245513204739,
                    6.591249650094573
                ],
                "label": "O",
                "properties": {}
            },
            {
                "species": [
                    {
                        "element": "O",
                        "occu": 1
                    }
                ],
                "abc": [
                    0.32496257,
                    0.93778992,
                    0.33505739
                ],
                "xyz": [
                    4.988188395141109,
                    1.8697007437616149,
                    2.4115992190808355
                ],
                "label": "O",
                "properties": {}
            }
        ]
    },
    "spacegroup": {
        "source": "spglib",
        "symbol": "C2",
        "number": 5,
        "point_group": "2",
        "crystal_system": "monoclinic",
        "hall": "C 2y"
    },
    "dielectric": {
        "epsilon_ionic": [
            [
                5.85621059,
                0.00026898,
                0.88633187
            ],
            [
                0.00026898,
                6.63217031,
                0.00043642
            ],
            [
                0.88633187,
                0.00043642,
                7.99596469
            ]
        ],
        "epsilon_ionic_avg": 6.8281151966666656,
        "epsilon_ionic_eig": [
            5.536763662700576,
            8.315411756796918,
            6.632170170502503
        ],
        "epsilon_electronic": [
            [
                2.58617318,
                0.0,
                -0.09389435
            ],
            [
                0.0,
                2.62922203,
                0.0
            ],
            [
                -0.0938981,
                0.0,
                2.59828238
            ]
        ],
        "epsilon_electronic_avg": 2.6045591966666666,
        "epsilon_electronic_eig": [
            2.4981365516793166,
            2.6863190083206834,
            2.62922203
        ]
    },
    "phonon": {
        "lowest_freq": -0.22548708571395573,
        "frequency": [
            -0.22548708571395573,
            -0.10549229645392502,
            -0.04252255321958151,
            1.9953297790785753,
            2.006147193312116,
            2.316641200856486,
            3.0888588651382785,
            3.7401999186709607,
            3.7566852192756883,
            3.9356841107270593,
            4.185409999365336,
            4.259164171137645,
            4.523022900952337,
            4.87180468572879,
            5.126281467680555,
            5.402808917512562,
            5.6763589779786825,
            6.067793060651718,
            6.426747300480265,
            6.91721585327609,
            7.144139216886448,
            7.2721608378736295,
            7.684288521815226,
            8.748280965194235,
            12.011651067471547,
            12.558106943345962,
            13.451703526050773,
            14.421590943996067,
            15.260201586670918,
            15.349586925397052,
            16.694944327997135,
            16.779691825192376,
            17.66505254165111,
            17.69964742669139,
            22.453327752508738,
            22.71338850629506,
            25.85932138010835,
            25.917949161461035,
            33.81032349216093,
            33.957739284419624,
            36.70405883830778,
            37.59476767259919
        ]
    },
    "born_effective_charge": {
        "avg_abs_trace": 1.4201869047619045,
        "tensors": [
            [
                [
                    1.16416,
                    0.01576,
                    -0.01948
                ],
                [
                    0.0174,
                    1.06043,
                    -0.01069
                ],
                [
                    0.00256,
                    -0.02929,
                    1.21112
                ]
            ],
            [
                [
                    1.21071,
                    9e-05,
                    -0.02361
                ],
                [
                    -0.0,
                    1.24995,
                    0.0
                ],
                [
                    -0.01949,
                    -9e-05,
                    1.27399
                ]
            ],
            [
                [
                    1.2297,
                    8e-05,
                    0.07249
                ],
                [
                    -0.0,
                    1.1803,
                    0.0
                ],
                [
                    0.03276,
                    -6e-05,
                    1.04631
                ]
            ],
            [
                [
                    1.16417,
                    -0.01559,
                    -0.01948
                ],
                [
                    -0.0174,
                    1.06043,
                    0.01069
                ],
                [
                    0.00255,
                    0.02914,
                    1.21112
                ]
            ],
            [
                [
                    0.95487,
                    0.11219,
                    0.02211
                ],
                [
                    0.11337,
                    0.90534,
                    -0.06354
                ],
                [
                    -0.01613,
                    -0.11914,
                    0.9473
                ]
            ],
            [
                [
                    0.95487,
                    -0.11201,
                    0.02211
                ],
                [
                    -0.11337,
                    0.90534,
                    0.06354
                ],
                [
                    -0.0161,
                    0.11898,
                    0.94729
                ]
            ],
            [
                [
                    1.43921,
                    -0.50943,
                    -0.9244
                ],
                [
                    -0.51682,
                    2.14825,
                    -0.62013
                ],
                [
                    -0.9548,
                    -0.62322,
                    1.48584
                ]
            ],
            [
                [
                    1.43918,
                    0.50959,
                    -0.92437
                ],
                [
                    0.51682,
                    2.14825,
                    0.62013
                ],
                [
                    -0.95468,
                    0.62317,
                    1.48579
                ]
            ],
            [
                [
                    -1.55627,
                    0.43139,
                    0.03879
                ],
                [
                    0.44091,
                    -2.06961,
                    0.04838
                ],
                [
                    0.07014,
                    0.07597,
                    -1.31347
                ]
            ],
            [
                [
                    -1.55664,
                    -0.43185,
                    0.03889
                ],
                [
                    -0.44091,
                    -2.06961,
                    -0.04838
                ],
                [
                    0.07095,
                    -0.07528,
                    -1.31398
                ]
            ],
            [
                [
                    -1.3297,
                    -0.10491,
                    0.25319
                ],
                [
                    -0.10001,
                    -1.86513,
                    0.48917
                ],
                [
                    0.26274,
                    0.53868,
                    -1.81138
                ]
            ],
            [
                [
                    -1.89237,
                    -0.16236,
                    0.60547
                ],
                [
                    -0.14986,
                    -1.39441,
                    0.00257
                ],
                [
                    0.6288,
                    0.0155,
                    -1.67951
                ]
            ],
            [
                [
                    -1.89208,
                    0.1623,
                    0.60527
                ],
                [
                    0.14986,
                    -1.39441,
                    -0.00257
                ],
                [
                    0.62731,
                    -0.01528,
                    -1.6783
                ]
            ],
            [
                [
                    -1.32981,
                    0.10476,
                    0.25303
                ],
                [
                    0.10001,
                    -1.86513,
                    -0.48917
                ],
                [
                    0.26339,
                    -0.53909,
                    -1.81212
                ]
            ]
        ]
    },
    "band_gap": 3.6618000000000004,
    "is_direct": false,
    "formula": "K2LiBO3"
}