{
    "mp_id": "mp-553303",
    "nelements": 3,
    "nsites": 6,
    "elements": [
        "Cs",
        "Cu",
        "O"
    ],
    "structure": {
        "@module": "pymatgen.core.structure",
        "@class": "Structure",
        "charge": null,
        "lattice": {
            "matrix": [
                [
                    5.04104223,
                    0.0,
                    0.0
                ],
                [
                    -2.52052061,
                    4.36567025,
                    0.0
                ],
                [
                    0.0,
                    0.0,
                    5.51535754
                ]
            ],
            "a": 5.04104223,
            "b": 5.041041646045967,
            "c": 5.51535754,
            "alpha": 90.0,
            "beta": 90.0,
            "gamma": 119.99999720425106,
            "volume": 121.3793860017574
        },
        "sites": [
            {
                "species": [
                    {
                        "element": "Cs",
                        "occu": 1
                    }
                ],
                "abc": [
                    0.0,
                    0.0,
                    0.5
                ],
                "xyz": [
                    0.0,
                    0.0,
                    2.75767877
                ],
                "label": "Cs",
                "properties": {}
            },
            {
                "species": [
                    {
                        "element": "Cu",
                        "occu": 1
                    }
                ],
                "abc": [
                    0.5,
                    0.5,
                    0.0
                ],
                "xyz": [
                    1.2602608100000001,
                    2.182835125,
                    0.0
                ],
                "label": "Cu",
                "properties": {}
            },
            {
                "species": [
                    {
                        "element": "Cu",
                        "occu": 1
                    }
                ],
                "abc": [
                    0.0,
                    0.5,
                    0.0
                ],
                "xyz": [
                    -1.260260305,
                    2.182835125,
                    0.0
                ],
                "label": "Cu",
                "properties": {}
            },
            {
                "species": [
                    {
                        "element": "Cu",
                        "occu": 1
                    }
                ],
                "abc": [
                    0.5,
                    0.0,
                    0.0
                ],
                "xyz": [
                    2.520521115,
                    0.0,
                    0.0
                ],
                "label": "Cu",
                "properties": {}
            },
            {
                "species": [
                    {
                        "element": "O",
                        "occu": 1
                    }
                ],
                "abc": [
                    0.666667,
                    0.333333,
                    0.80073547
                ],
                "xyz": [
                    2.5205238038542808,
                    1.45522196144325,
                    4.416342412009944
                ],
                "label": "O",
                "properties": {}
            },
            {
                "species": [
                    {
                        "element": "O",
                        "occu": 1
                    }
                ],
                "abc": [
                    0.333333,
                    0.666667,
                    0.19926453
                ],
                "xyz": [
                    -2.1838542800800553e-06,
                    2.91044828855675,
                    1.0990151279900562
                ],
                "label": "O",
                "properties": {}
            }
        ]
    },
    "spacegroup": {
        "source": "spglib",
        "symbol": "P-3m1",
        "number": 164,
        "point_group": "-3m",
        "crystal_system": "trigonal",
        "hall": "-P 3 2\""
    },
    "dielectric": {
        "epsilon_ionic": [
            [
                6.53872589,
                0.0,
                0.0
            ],
            [
                0.0,
                6.53703405,
                -3.401e-05
            ],
            [
                0.0,
                -3.401e-05,
                2.175555
            ]
        ],
        "epsilon_ionic_avg": 5.0837716466666665,
        "epsilon_ionic_eig": [
            2.1755549997347963,
            6.537034050265204,
            6.53872589
        ],
        "epsilon_electronic": [
            [
                4.71129991,
                -0.0,
                -0.0
            ],
            [
                0.0,
                4.71129897,
                0.0
            ],
            [
                0.0,
                0.0,
                3.06755574
            ]
        ],
        "epsilon_electronic_avg": 4.1633848733333325,
        "epsilon_electronic_eig": [
            4.71129991,
            4.71129897,
            3.06755574
        ]
    },
    "phonon": {
        "lowest_freq": -0.11159265896055795,
        "frequency": [
            -0.11159265896055795,
            -0.11159264790050492,
            -0.06157630496765052,
            1.1682597834511215,
            1.1682598995572036,
            2.221666484026708,
            3.3753955462917435,
            3.948867165535357,
            3.948867184102718,
            5.750130540341264,
            5.7501306040963724,
            7.193220612678285,
            13.219155540108442,
            13.219156852779921,
            15.174896724621401,
            16.813406329398457,
            16.813407710320984,
            18.743745871580003
        ]
    },
    "born_effective_charge": {
        "avg_abs_trace": 0.846853888888889,
        "tensors": [
            [
                [
                    1.29485,
                    0.0,
                    0.0
                ],
                [
                    0.0,
                    1.29467,
                    -3e-05
                ],
                [
                    -0.0,
                    0.0,
                    1.4607
                ]
            ],
            [
                [
                    0.78046,
                    -0.48402,
                    -0.53477
                ],
                [
                    -0.48398,
                    0.22151,
                    0.30871
                ],
                [
                    -0.34375,
                    0.19846,
                    0.18853
                ]
            ],
            [
                [
                    0.78046,
                    0.48402,
                    0.53477
                ],
                [
                    0.48398,
                    0.22151,
                    0.30871
                ],
                [
                    0.34375,
                    0.19846,
                    0.18853
                ]
            ],
            [
                [
                    -0.05797,
                    0.0,
                    0.0
                ],
                [
                    -0.0,
                    1.05991,
                    -0.61741
                ],
                [
                    -0.0,
                    -0.39692,
                    0.18853
                ]
            ],
            [
                [
                    -1.3989,
                    7e-05,
                    -0.0
                ],
                [
                    0.0,
                    -1.39863,
                    0.0
                ],
                [
                    -0.0,
                    0.0,
                    -1.01316
                ]
            ],
            [
                [
                    -1.3989,
                    -7e-05,
                    0.0
                ],
                [
                    0.0,
                    -1.39897,
                    1e-05
                ],
                [
                    -0.0,
                    -0.0,
                    -1.01312
                ]
            ]
        ]
    },
    "band_gap": 1.8192000000000002,
    "is_direct": false,
    "formula": "CsCu3O2"
}