{
    "mp_id": "mp-5548",
    "nelements": 3,
    "nsites": 22,
    "elements": [
        "Cd",
        "O",
        "Ta"
    ],
    "structure": {
        "@module": "pymatgen.core.structure",
        "@class": "Structure",
        "charge": null,
        "lattice": {
            "matrix": [
                [
                    0.0,
                    5.20694806,
                    5.20694806
                ],
                [
                    5.20694806,
                    0.0,
                    5.20694806
                ],
                [
                    5.20694806,
                    5.20694806,
                    0.0
                ]
            ],
            "a": 7.3637365650242765,
            "b": 7.3637365650242765,
            "c": 7.3637365650242765,
            "alpha": 60.00000000000001,
            "beta": 60.00000000000001,
            "gamma": 60.00000000000001,
            "volume": 282.34476012202094
        },
        "sites": [
            {
                "species": [
                    {
                        "element": "Ta",
                        "occu": 1
                    }
                ],
                "abc": [
                    0.125,
                    0.125,
                    0.125
                ],
                "xyz": [
                    1.301737015,
                    1.301737015,
                    1.301737015
                ],
                "label": "Ta",
                "properties": {}
            },
            {
                "species": [
                    {
                        "element": "Ta",
                        "occu": 1
                    }
                ],
                "abc": [
                    0.625,
                    0.125,
                    0.125
                ],
                "xyz": [
                    1.301737015,
                    3.9052110450000006,
                    3.9052110450000006
                ],
                "label": "Ta",
                "properties": {}
            },
            {
                "species": [
                    {
                        "element": "Ta",
                        "occu": 1
                    }
                ],
                "abc": [
                    0.125,
                    0.125,
                    0.625
                ],
                "xyz": [
                    3.9052110450000006,
                    3.9052110450000006,
                    1.301737015
                ],
                "label": "Ta",
                "properties": {}
            },
            {
                "species": [
                    {
                        "element": "Ta",
                        "occu": 1
                    }
                ],
                "abc": [
                    0.125,
                    0.625,
                    0.125
                ],
                "xyz": [
                    3.9052110450000006,
                    1.301737015,
                    3.9052110450000006
                ],
                "label": "Ta",
                "properties": {}
            },
            {
                "species": [
                    {
                        "element": "Cd",
                        "occu": 1
                    }
                ],
                "abc": [
                    0.625,
                    0.625,
                    0.625
                ],
                "xyz": [
                    6.508685075000001,
                    6.508685075000001,
                    6.508685075000001
                ],
                "label": "Cd",
                "properties": {}
            },
            {
                "species": [
                    {
                        "element": "Cd",
                        "occu": 1
                    }
                ],
                "abc": [
                    0.125,
                    0.625,
                    0.625
                ],
                "xyz": [
                    6.508685075000001,
                    3.9052110450000006,
                    3.9052110450000006
                ],
                "label": "Cd",
                "properties": {}
            },
            {
                "species": [
                    {
                        "element": "Cd",
                        "occu": 1
                    }
                ],
                "abc": [
                    0.625,
                    0.625,
                    0.125
                ],
                "xyz": [
                    3.9052110450000006,
                    3.9052110450000006,
                    6.508685075000001
                ],
                "label": "Cd",
                "properties": {}
            },
            {
                "species": [
                    {
                        "element": "Cd",
                        "occu": 1
                    }
                ],
                "abc": [
                    0.625,
                    0.125,
                    0.625
                ],
                "xyz": [
                    3.9052110450000006,
                    6.508685075000001,
                    3.9052110450000006
                ],
                "label": "Cd",
                "properties": {}
            },
            {
                "species": [
                    {
                        "element": "O",
                        "occu": 1
                    }
                ],
                "abc": [
                    0.05611277,
                    0.05611277,
                    0.44388723
                ],
                "xyz": [
                    2.60347403,
                    2.60347403,
                    0.5843525577854524
                ],
                "label": "O",
                "properties": {}
            },
            {
                "species": [
                    {
                        "element": "O",
                        "occu": 1
                    }
                ],
                "abc": [
                    0.80611277,
                    0.80611277,
                    0.19388723
                ],
                "xyz": [
                    5.20694806,
                    5.20694806,
                    8.394774647785454
                ],
                "label": "O",
                "properties": {}
            },
            {
                "species": [
                    {
                        "element": "O",
                        "occu": 1
                    }
                ],
                "abc": [
                    0.44388723,
                    0.05611277,
                    0.44388723
                ],
                "xyz": [
                    2.60347403,
                    4.622595502214548,
                    2.60347403
                ],
                "label": "O",
                "properties": {}
            },
            {
                "species": [
                    {
                        "element": "O",
                        "occu": 1
                    }
                ],
                "abc": [
                    0.44388723,
                    0.05611277,
                    0.05611277
                ],
                "xyz": [
                    0.5843525577854524,
                    2.60347403,
                    2.60347403
                ],
                "label": "O",
                "properties": {}
            },
            {
                "species": [
                    {
                        "element": "O",
                        "occu": 1
                    }
                ],
                "abc": [
                    0.05611277,
                    0.44388723,
                    0.44388723
                ],
                "xyz": [
                    4.622595502214548,
                    2.60347403,
                    2.60347403
                ],
                "label": "O",
                "properties": {}
            },
            {
                "species": [
                    {
                        "element": "O",
                        "occu": 1
                    }
                ],
                "abc": [
                    0.05611277,
                    0.44388723,
                    0.05611277
                ],
                "xyz": [
                    2.60347403,
                    0.5843525577854524,
                    2.60347403
                ],
                "label": "O",
                "properties": {}
            },
            {
                "species": [
                    {
                        "element": "O",
                        "occu": 1
                    }
                ],
                "abc": [
                    0.80611277,
                    0.19388723,
                    0.80611277
                ],
                "xyz": [
                    5.20694806,
                    8.394774647785454,
                    5.20694806
                ],
                "label": "O",
                "properties": {}
            },
            {
                "species": [
                    {
                        "element": "O",
                        "occu": 1
                    }
                ],
                "abc": [
                    0.19388723,
                    0.80611277,
                    0.19388723
                ],
                "xyz": [
                    5.20694806,
                    2.0191214722145476,
                    5.20694806
                ],
                "label": "O",
                "properties": {}
            },
            {
                "species": [
                    {
                        "element": "O",
                        "occu": 1
                    }
                ],
                "abc": [
                    0.75,
                    0.75,
                    0.75
                ],
                "xyz": [
                    7.81042209,
                    7.81042209,
                    7.81042209
                ],
                "label": "O",
                "properties": {}
            },
            {
                "species": [
                    {
                        "element": "O",
                        "occu": 1
                    }
                ],
                "abc": [
                    0.5,
                    0.5,
                    0.5
                ],
                "xyz": [
                    5.20694806,
                    5.20694806,
                    5.20694806
                ],
                "label": "O",
                "properties": {}
            },
            {
                "species": [
                    {
                        "element": "O",
                        "occu": 1
                    }
                ],
                "abc": [
                    0.44388723,
                    0.44388723,
                    0.05611277
                ],
                "xyz": [
                    2.60347403,
                    2.60347403,
                    4.622595502214548
                ],
                "label": "O",
                "properties": {}
            },
            {
                "species": [
                    {
                        "element": "O",
                        "occu": 1
                    }
                ],
                "abc": [
                    0.19388723,
                    0.80611277,
                    0.80611277
                ],
                "xyz": [
                    8.394774647785454,
                    5.20694806,
                    5.20694806
                ],
                "label": "O",
                "properties": {}
            },
            {
                "species": [
                    {
                        "element": "O",
                        "occu": 1
                    }
                ],
                "abc": [
                    0.80611277,
                    0.19388723,
                    0.19388723
                ],
                "xyz": [
                    2.0191214722145476,
                    5.20694806,
                    5.20694806
                ],
                "label": "O",
                "properties": {}
            },
            {
                "species": [
                    {
                        "element": "O",
                        "occu": 1
                    }
                ],
                "abc": [
                    0.19388723,
                    0.19388723,
                    0.80611277
                ],
                "xyz": [
                    5.20694806,
                    5.20694806,
                    2.0191214722145476
                ],
                "label": "O",
                "properties": {}
            }
        ]
    },
    "spacegroup": {
        "source": "spglib",
        "symbol": "Fd-3m",
        "number": 227,
        "point_group": "m-3m",
        "crystal_system": "cubic",
        "hall": "F 4d 2 3 -1d"
    },
    "dielectric": {
        "epsilon_ionic": [
            [
                43.38515932,
                0.0,
                0.0
            ],
            [
                0.0,
                43.38055184,
                -0.0
            ],
            [
                0.0,
                -0.0,
                43.37086908
            ]
        ],
        "epsilon_ionic_avg": 43.37886008,
        "epsilon_ionic_eig": [
            43.38515932,
            43.38055184,
            43.37086908
        ],
        "epsilon_electronic": [
            [
                5.46553704,
                0.0,
                0.0
            ],
            [
                -0.0,
                5.46553704,
                0.0
            ],
            [
                -0.0,
                0.0,
                5.46553704
            ]
        ],
        "epsilon_electronic_avg": 5.46553704,
        "epsilon_electronic_eig": [
            5.46553704,
            5.46553704,
            5.46553704
        ]
    },
    "phonon": {
        "lowest_freq": -0.05591786213440813,
        "frequency": [
            -0.05591786213440813,
            -0.05591786213440813,
            -0.05591786213440813,
            1.4232100296113865,
            1.4232100296113865,
            1.4232100296113865,
            1.7560726486427767,
            1.7560726486427767,
            1.7560726486427767,
            1.9454973646850038,
            1.9454973646850038,
            2.4927497893363335,
            2.4927497893363335,
            2.4927497893363335,
            2.8865981688820663,
            2.8865981688820663,
            2.8865981688820663,
            4.06131583387481,
            4.06131583387481,
            4.686635608567401,
            4.686635608567401,
            4.686635608567401,
            5.66431878847354,
            6.09373863477667,
            6.09373863477667,
            6.09373863477667,
            7.073224491679634,
            7.073224491679634,
            7.073224491679634,
            7.732452168968511,
            7.732452168968511,
            7.732452168968511,
            8.119238315850316,
            8.151540293551596,
            8.151540293551596,
            8.151540293551596,
            9.222993518870293,
            9.222993518870293,
            9.740150765972755,
            9.740150765972755,
            9.740150765972755,
            9.82984871374014,
            9.82984871374014,
            9.82984871374014,
            11.047523549108659,
            11.917963881264985,
            11.917963881264985,
            11.917963881264985,
            12.192557076022894,
            12.192557076022894,
            13.229768407697927,
            13.229768407697927,
            13.229768407697927,
            14.682194797946721,
            17.1399251150941,
            17.1399251150941,
            17.1399251150941,
            19.11428005156338,
            19.11428005156338,
            19.11428005156338,
            19.74579338902423,
            19.74579338902423,
            19.74579338902423,
            26.39414216767576,
            26.39414216767576,
            26.39414216767576
        ]
    },
    "born_effective_charge": {
        "avg_abs_trace": 3.6929409090909093,
        "tensors": [
            [
                [
                    7.6282,
                    0.26935,
                    0.26935
                ],
                [
                    0.26966,
                    7.62785,
                    0.26966
                ],
                [
                    0.27102,
                    0.27102,
                    7.62694
                ]
            ],
            [
                [
                    7.6282,
                    -0.26935,
                    -0.26935
                ],
                [
                    -0.26966,
                    7.62785,
                    0.26966
                ],
                [
                    -0.27102,
                    0.27102,
                    7.62694
                ]
            ],
            [
                [
                    7.6282,
                    0.26935,
                    -0.26935
                ],
                [
                    0.26966,
                    7.62785,
                    -0.26966
                ],
                [
                    -0.27102,
                    -0.27102,
                    7.62694
                ]
            ],
            [
                [
                    7.6282,
                    -0.26935,
                    0.26935
                ],
                [
                    -0.26966,
                    7.62785,
                    -0.26966
                ],
                [
                    0.27102,
                    -0.27102,
                    7.62694
                ]
            ],
            [
                [
                    2.52805,
                    0.02736,
                    0.02736
                ],
                [
                    0.02739,
                    2.52796,
                    0.02739
                ],
                [
                    0.02716,
                    0.02716,
                    2.52777
                ]
            ],
            [
                [
                    2.52805,
                    -0.02736,
                    -0.02736
                ],
                [
                    -0.02739,
                    2.52796,
                    0.02739
                ],
                [
                    -0.02716,
                    0.02716,
                    2.52777
                ]
            ],
            [
                [
                    2.52805,
                    0.02736,
                    -0.02736
                ],
                [
                    0.02739,
                    2.52796,
                    -0.02739
                ],
                [
                    -0.02716,
                    -0.02716,
                    2.52777
                ]
            ],
            [
                [
                    2.52805,
                    -0.02736,
                    0.02736
                ],
                [
                    -0.02739,
                    2.52796,
                    -0.02739
                ],
                [
                    0.02716,
                    -0.02716,
                    2.52777
                ]
            ],
            [
                [
                    -3.49208,
                    -2.00831,
                    -3e-05
                ],
                [
                    -2.00842,
                    -3.49193,
                    -0.0
                ],
                [
                    -0.0,
                    -0.0,
                    -2.222
                ]
            ],
            [
                [
                    -3.49208,
                    2.00831,
                    -3e-05
                ],
                [
                    2.00842,
                    -3.49193,
                    -0.0
                ],
                [
                    0.0,
                    0.0,
                    -2.222
                ]
            ],
            [
                [
                    -3.49208,
                    3e-05,
                    2.00831
                ],
                [
                    0.0,
                    -2.22197,
                    -0.0
                ],
                [
                    2.0086,
                    2e-05,
                    -3.49138
                ]
            ],
            [
                [
                    -2.22226,
                    0.0,
                    0.0
                ],
                [
                    -0.0,
                    -3.49193,
                    -2.00842
                ],
                [
                    -2e-05,
                    -2.0086,
                    -3.49138
                ]
            ],
            [
                [
                    -2.2222,
                    0.0,
                    -0.0
                ],
                [
                    0.0,
                    -3.49193,
                    2.00842
                ],
                [
                    2e-05,
                    2.0086,
                    -3.49138
                ]
            ],
            [
                [
                    -3.49208,
                    -3e-05,
                    -2.00831
                ],
                [
                    0.0,
                    -2.22221,
                    0.0
                ],
                [
                    -2.0086,
                    -2e-05,
                    -3.49138
                ]
            ],
            [
                [
                    -3.49208,
                    -3e-05,
                    2.00831
                ],
                [
                    -0.0,
                    -2.22221,
                    -0.0
                ],
                [
                    2.0086,
                    -2e-05,
                    -3.49138
                ]
            ],
            [
                [
                    -3.49208,
                    3e-05,
                    -2.00831
                ],
                [
                    0.0,
                    -2.22197,
                    -0.0
                ],
                [
                    -2.0086,
                    2e-05,
                    -3.49138
                ]
            ],
            [
                [
                    -1.8997,
                    0.0,
                    0.0
                ],
                [
                    0.0,
                    -1.8997,
                    -0.0
                ],
                [
                    0.0,
                    0.0,
                    -1.90011
                ]
            ],
            [
                [
                    -1.8997,
                    0.0,
                    0.0
                ],
                [
                    0.0,
                    -1.8997,
                    -0.0
                ],
                [
                    0.0,
                    0.0,
                    -1.90011
                ]
            ],
            [
                [
                    -3.49208,
                    2.00831,
                    3e-05
                ],
                [
                    2.00842,
                    -3.49193,
                    0.0
                ],
                [
                    0.0,
                    0.0,
                    -2.2218
                ]
            ],
            [
                [
                    -2.22226,
                    0.0,
                    0.0
                ],
                [
                    -0.0,
                    -3.49193,
                    2.00842
                ],
                [
                    -2e-05,
                    2.0086,
                    -3.49138
                ]
            ],
            [
                [
                    -2.2222,
                    0.0,
                    0.0
                ],
                [
                    0.0,
                    -3.49193,
                    -2.00842
                ],
                [
                    2e-05,
                    -2.0086,
                    -3.49138
                ]
            ],
            [
                [
                    -3.49208,
                    -2.00831,
                    3e-05
                ],
                [
                    -2.00842,
                    -3.49193,
                    0.0
                ],
                [
                    0.0,
                    0.0,
                    -2.2218
                ]
            ]
        ]
    },
    "band_gap": 2.0273,
    "is_direct": false,
    "formula": "Ta2Cd2O7"
}