{
    "mp_id": "mp-5020",
    "nelements": 3,
    "nsites": 5,
    "elements": [
        "Ba",
        "O",
        "Ti"
    ],
    "structure": {
        "@module": "pymatgen.core.structure",
        "@class": "Structure",
        "charge": null,
        "lattice": {
            "matrix": [
                [
                    4.01686047,
                    0.0,
                    0.0
                ],
                [
                    0.0,
                    4.01686047,
                    0.0
                ],
                [
                    0.0,
                    0.0,
                    4.01686047
                ]
            ],
            "a": 4.01686047,
            "b": 4.01686047,
            "c": 4.01686047,
            "alpha": 90.0,
            "beta": 90.0,
            "gamma": 90.0,
            "volume": 64.81271865840112
        },
        "sites": [
            {
                "species": [
                    {
                        "element": "Ba",
                        "occu": 1
                    }
                ],
                "abc": [
                    0.0,
                    0.0,
                    0.0
                ],
                "xyz": [
                    0.0,
                    0.0,
                    0.0
                ],
                "label": "Ba",
                "properties": {}
            },
            {
                "species": [
                    {
                        "element": "Ti",
                        "occu": 1
                    }
                ],
                "abc": [
                    0.5,
                    0.5,
                    0.5
                ],
                "xyz": [
                    2.008430235,
                    2.008430235,
                    2.008430235
                ],
                "label": "Ti",
                "properties": {}
            },
            {
                "species": [
                    {
                        "element": "O",
                        "occu": 1
                    }
                ],
                "abc": [
                    0.0,
                    0.5,
                    0.5
                ],
                "xyz": [
                    0.0,
                    2.008430235,
                    2.008430235
                ],
                "label": "O",
                "properties": {}
            },
            {
                "species": [
                    {
                        "element": "O",
                        "occu": 1
                    }
                ],
                "abc": [
                    0.5,
                    0.5,
                    0.0
                ],
                "xyz": [
                    2.008430235,
                    2.008430235,
                    0.0
                ],
                "label": "O",
                "properties": {}
            },
            {
                "species": [
                    {
                        "element": "O",
                        "occu": 1
                    }
                ],
                "abc": [
                    0.5,
                    0.0,
                    0.5
                ],
                "xyz": [
                    2.008430235,
                    0.0,
                    2.008430235
                ],
                "label": "O",
                "properties": {}
            }
        ]
    },
    "spacegroup": {
        "source": "spglib",
        "symbol": "Pm-3m",
        "number": 221,
        "point_group": "m-3m",
        "crystal_system": "cubic",
        "hall": "-P 4 2 3"
    },
    "dielectric": {
        "epsilon_ionic": [
            [
                67.16969459,
                0.0,
                -0.0
            ],
            [
                0.0,
                67.16972265,
                -0.0
            ],
            [
                -0.0,
                -0.0,
                67.16985184
            ]
        ],
        "epsilon_ionic_avg": 67.16975636,
        "epsilon_ionic_eig": [
            67.16969459,
            67.16972265,
            67.16985184
        ],
        "epsilon_electronic": [
            [
                6.49659467,
                -0.0,
                -0.0
            ],
            [
                -0.0,
                6.49659467,
                -0.0
            ],
            [
                0.0,
                0.0,
                6.49659467
            ]
        ],
        "epsilon_electronic_avg": 6.49659467,
        "epsilon_electronic_eig": [
            6.49659467,
            6.49659467,
            6.49659467
        ]
    },
    "phonon": {
        "lowest_freq": -0.03567756145501373,
        "frequency": [
            -0.03567756145501373,
            -0.03567756145501373,
            -0.03567756145501373,
            5.038834802559712,
            5.038834802559712,
            5.038834802559712,
            5.978760312150754,
            5.978760312150754,
            5.978760312150754,
            8.498044871786078,
            8.498044871786078,
            8.498044871786078,
            14.631546271002103,
            14.631546271002103,
            14.631546271002103
        ]
    },
    "born_effective_charge": {
        "avg_abs_trace": 3.9212086666666672,
        "tensors": [
            [
                [
                    2.71629,
                    -0.0,
                    0.0
                ],
                [
                    0.0,
                    2.71629,
                    -0.0
                ],
                [
                    -0.0,
                    0.0,
                    2.71629
                ]
            ],
            [
                [
                    7.08673,
                    0.0,
                    -0.0
                ],
                [
                    0.0,
                    7.08673,
                    -0.0
                ],
                [
                    0.0,
                    -0.0,
                    7.08674
                ]
            ],
            [
                [
                    -5.71079,
                    0.0,
                    0.0
                ],
                [
                    0.0,
                    -2.04611,
                    -0.0
                ],
                [
                    0.0,
                    0.0,
                    -2.04612
                ]
            ],
            [
                [
                    -2.04611,
                    -0.0,
                    0.0
                ],
                [
                    0.0,
                    -2.04611,
                    -0.0
                ],
                [
                    0.0,
                    -0.0,
                    -5.7108
                ]
            ],
            [
                [
                    -2.04611,
                    0.0,
                    0.0
                ],
                [
                    -0.0,
                    -5.71079,
                    0.0
                ],
                [
                    -0.0,
                    -0.0,
                    -2.04612
                ]
            ]
        ]
    },
    "band_gap": 1.9672,
    "is_direct": false,
    "formula": "BaTiO3"
}