{
    "mp_id": "mp-5418",
    "nelements": 3,
    "nsites": 30,
    "elements": [
        "Li",
        "O",
        "Zr"
    ],
    "structure": {
        "@module": "pymatgen.core.structure",
        "@class": "Structure",
        "charge": null,
        "lattice": {
            "matrix": [
                [
                    5.23360262,
                    -3.00300937,
                    -0.000576
                ],
                [
                    5.23360262,
                    3.00300937,
                    -0.000576
                ],
                [
                    -1.79326314,
                    0.0,
                    10.08200047
                ]
            ],
            "a": 6.033959064507702,
            "b": 6.033959064507702,
            "c": 10.240240532641941,
            "alpha": 98.74198108214604,
            "beta": 98.74198108214604,
            "gamma": 59.69388344116697,
            "volume": 316.9024806375106
        },
        "sites": [
            {
                "species": [
                    {
                        "element": "Li",
                        "occu": 1
                    }
                ],
                "abc": [
                    0.41612315,
                    0.70486878,
                    0.08373919
                ],
                "xyz": [
                    5.7166598990464,
                    0.8671058324365528,
                    0.8436128615857393
                ],
                "label": "Li",
                "properties": {}
            },
            {
                "species": [
                    {
                        "element": "Li",
                        "occu": 1
                    }
                ],
                "abc": [
                    0.29513122,
                    0.58387685,
                    0.41626081
                ],
                "xyz": [
                    3.8539137709536004,
                    0.8671058324365529,
                    4.196235373414261
                ],
                "label": "Li",
                "properties": {}
            },
            {
                "species": [
                    {
                        "element": "Li",
                        "occu": 1
                    }
                ],
                "abc": [
                    0.58387685,
                    0.29513122,
                    0.91626081
                ],
                "xyz": [
                    2.9572822009536,
                    -0.8671058324365529,
                    9.237235608414261
                ],
                "label": "Li",
                "properties": {}
            },
            {
                "species": [
                    {
                        "element": "Li",
                        "occu": 1
                    }
                ],
                "abc": [
                    0.83563912,
                    0.03246679,
                    0.39786086
                ],
                "xyz": [
                    3.8298521499267837,
                    -2.411934032714732,
                    4.010733348510445
                ],
                "label": "Li",
                "properties": {}
            },
            {
                "species": [
                    {
                        "element": "Li",
                        "occu": 1
                    }
                ],
                "abc": [
                    0.16243412,
                    0.42359792,
                    0.60433043
                ],
                "xyz": [
                    1.9833353354485947,
                    0.7842773385048061,
                    6.092522124840262
                ],
                "label": "Li",
                "properties": {}
            },
            {
                "species": [
                    {
                        "element": "Li",
                        "occu": 1
                    }
                ],
                "abc": [
                    0.57640208,
                    0.83756588,
                    0.89566957
                ],
                "xyz": [
                    5.793975194551406,
                    0.7842773385048061,
                    9.02932658015974
                ],
                "label": "Li",
                "properties": {}
            },
            {
                "species": [
                    {
                        "element": "Li",
                        "occu": 1
                    }
                ],
                "abc": [
                    0.83756588,
                    0.57640208,
                    0.39566957
                ],
                "xyz": [
                    6.690606764551406,
                    -0.7842773385048061,
                    3.9883263451597384
                ],
                "label": "Li",
                "properties": {}
            },
            {
                "species": [
                    {
                        "element": "Li",
                        "occu": 1
                    }
                ],
                "abc": [
                    0.42359792,
                    0.16243412,
                    0.10433043
                ],
                "xyz": [
                    2.879966905448595,
                    -0.7842773385048061,
                    1.0515218898402623
                ],
                "label": "Li",
                "properties": {}
            },
            {
                "species": [
                    {
                        "element": "Li",
                        "occu": 1
                    }
                ],
                "abc": [
                    0.03246679,
                    0.83563912,
                    0.89786086
                ],
                "xyz": [
                    2.9332205799267834,
                    2.411934032714732,
                    9.051733583510444
                ],
                "label": "Li",
                "properties": {}
            },
            {
                "species": [
                    {
                        "element": "Li",
                        "occu": 1
                    }
                ],
                "abc": [
                    0.16436088,
                    0.96753321,
                    0.60213914
                ],
                "xyz": [
                    4.844089950073217,
                    2.4119340327147323,
                    6.070115121489557
                ],
                "label": "Li",
                "properties": {}
            },
            {
                "species": [
                    {
                        "element": "Li",
                        "occu": 1
                    }
                ],
                "abc": [
                    0.96753321,
                    0.16436088,
                    0.10213914
                ],
                "xyz": [
                    5.740721520073216,
                    -2.4119340327147323,
                    1.029114886489556
                ],
                "label": "Li",
                "properties": {}
            },
            {
                "species": [
                    {
                        "element": "Li",
                        "occu": 1
                    }
                ],
                "abc": [
                    0.70486878,
                    0.41612315,
                    0.58373919
                ],
                "xyz": [
                    4.8200283290464,
                    -0.8671058324365528,
                    5.884613096585739
                ],
                "label": "Li",
                "properties": {}
            },
            {
                "species": [
                    {
                        "element": "Zr",
                        "occu": 1
                    }
                ],
                "abc": [
                    0.30663573,
                    0.06078356,
                    0.36485695
                ],
                "xyz": [
                    1.2686420389747166,
                    -0.7382963701448328,
                    3.678276307871727
                ],
                "label": "Zr",
                "properties": {}
            },
            {
                "species": [
                    {
                        "element": "Zr",
                        "occu": 1
                    }
                ],
                "abc": [
                    0.93921644,
                    0.69336427,
                    0.13514305
                ],
                "xyz": [
                    8.301931631025283,
                    -0.7382963701448331,
                    1.3615719271282734
                ],
                "label": "Zr",
                "properties": {}
            },
            {
                "species": [
                    {
                        "element": "Zr",
                        "occu": 1
                    }
                ],
                "abc": [
                    0.69336427,
                    0.93921644,
                    0.63514305
                ],
                "xyz": [
                    7.405300061025282,
                    0.7382963701448331,
                    6.4025721621282745
                ],
                "label": "Zr",
                "properties": {}
            },
            {
                "species": [
                    {
                        "element": "Zr",
                        "occu": 1
                    }
                ],
                "abc": [
                    0.06078356,
                    0.30663573,
                    0.86485695
                ],
                "xyz": [
                    0.3720104689747168,
                    0.7382963701448328,
                    8.719276542871727
                ],
                "label": "Zr",
                "properties": {}
            },
            {
                "species": [
                    {
                        "element": "O",
                        "occu": 1
                    }
                ],
                "abc": [
                    0.86724129,
                    0.63886838,
                    0.75670278
                ],
                "xyz": [
                    6.525412311609807,
                    -0.6858059885841667,
                    7.628210264440387
                ],
                "label": "O",
                "properties": {}
            },
            {
                "species": [
                    {
                        "element": "O",
                        "occu": 1
                    }
                ],
                "abc": [
                    0.36113162,
                    0.13275871,
                    0.74329722
                ],
                "xyz": [
                    1.2518982183901934,
                    -0.6858059885841667,
                    7.4936384405596135
                ],
                "label": "O",
                "properties": {}
            },
            {
                "species": [
                    {
                        "element": "O",
                        "occu": 1
                    }
                ],
                "abc": [
                    0.13275871,
                    0.36113162,
                    0.24329722
                ],
                "xyz": [
                    2.1485297883901935,
                    0.6858059885841667,
                    2.4526382055596136
                ],
                "label": "O",
                "properties": {}
            },
            {
                "species": [
                    {
                        "element": "O",
                        "occu": 1
                    }
                ],
                "abc": [
                    0.63886838,
                    0.86724129,
                    0.25670278
                ],
                "xyz": [
                    7.422043881609807,
                    0.6858059885841667,
                    2.5872100294403872
                ],
                "label": "O",
                "properties": {}
            },
            {
                "species": [
                    {
                        "element": "O",
                        "occu": 1
                    }
                ],
                "abc": [
                    0.84752676,
                    0.15247324,
                    0.75
                ],
                "xyz": [
                    3.888655265000001,
                    -2.0872522332114825,
                    7.560924352500001
                ],
                "label": "O",
                "properties": {}
            },
            {
                "species": [
                    {
                        "element": "O",
                        "occu": 1
                    }
                ],
                "abc": [
                    0.15247324,
                    0.84752676,
                    0.25
                ],
                "xyz": [
                    4.785286835000001,
                    2.0872522332114825,
                    2.5199241175
                ],
                "label": "O",
                "properties": {}
            },
            {
                "species": [
                    {
                        "element": "O",
                        "occu": 1
                    }
                ],
                "abc": [
                    0.76364169,
                    0.50094706,
                    0.00205793
                ],
                "xyz": [
                    6.614664585208825,
                    -0.7888744353386832,
                    0.020019648107227103
                ],
                "label": "O",
                "properties": {}
            },
            {
                "species": [
                    {
                        "element": "O",
                        "occu": 1
                    }
                ],
                "abc": [
                    0.49905294,
                    0.23635831,
                    0.49794207
                ],
                "xyz": [
                    2.9559090847911755,
                    -0.7888744353386831,
                    5.019828586892773
                ],
                "label": "O",
                "properties": {}
            },
            {
                "species": [
                    {
                        "element": "O",
                        "occu": 1
                    }
                ],
                "abc": [
                    0.23635831,
                    0.49905294,
                    0.99794207
                ],
                "xyz": [
                    2.0592775147911753,
                    0.7888744353386831,
                    10.060828821892775
                ],
                "label": "O",
                "properties": {}
            },
            {
                "species": [
                    {
                        "element": "O",
                        "occu": 1
                    }
                ],
                "abc": [
                    0.50094706,
                    0.76364169,
                    0.50205793
                ],
                "xyz": [
                    5.718033015208825,
                    0.7888744353386832,
                    5.061019883107227
                ],
                "label": "O",
                "properties": {}
            },
            {
                "species": [
                    {
                        "element": "O",
                        "occu": 1
                    }
                ],
                "abc": [
                    0.00215334,
                    0.75490374,
                    0.52067963
                ],
                "xyz": [
                    3.0284203291497116,
                    2.2605165044712483,
                    5.2490562095013455
                ],
                "label": "O",
                "properties": {}
            },
            {
                "species": [
                    {
                        "element": "O",
                        "occu": 1
                    }
                ],
                "abc": [
                    0.24509626,
                    0.99784666,
                    0.97932037
                ],
                "xyz": [
                    4.748890200850289,
                    2.2605165044712483,
                    9.872792495498654
                ],
                "label": "O",
                "properties": {}
            },
            {
                "species": [
                    {
                        "element": "O",
                        "occu": 1
                    }
                ],
                "abc": [
                    0.99784666,
                    0.24509626,
                    0.47932037
                ],
                "xyz": [
                    5.645521770850289,
                    -2.2605165044712483,
                    4.831792260498654
                ],
                "label": "O",
                "properties": {}
            },
            {
                "species": [
                    {
                        "element": "O",
                        "occu": 1
                    }
                ],
                "abc": [
                    0.75490374,
                    0.00215334,
                    0.02067963
                ],
                "xyz": [
                    3.925051899149712,
                    -2.2605165044712483,
                    0.2080559745013461
                ],
                "label": "O",
                "properties": {}
            }
        ]
    },
    "spacegroup": {
        "source": "spglib",
        "symbol": "C2/c",
        "number": 15,
        "point_group": "2/m",
        "crystal_system": "monoclinic",
        "hall": "-C 2yc"
    },
    "dielectric": {
        "epsilon_ionic": [
            [
                13.46106702,
                -0.0,
                -0.2906833
            ],
            [
                -0.0,
                12.68083159,
                0.0
            ],
            [
                -0.2906833,
                0.0,
                17.91150389
            ]
        ],
        "epsilon_ionic_avg": 14.684467499999998,
        "epsilon_ionic_eig": [
            13.442161157113908,
            17.93040975288609,
            12.68083159
        ],
        "epsilon_electronic": [
            [
                3.48369279,
                0.0,
                0.01713507
            ],
            [
                0.0,
                3.57518163,
                0.0
            ],
            [
                0.01714194,
                0.0,
                3.6959569
            ]
        ],
        "epsilon_electronic_avg": 3.584943773333333,
        "epsilon_electronic_eig": [
            3.4823179082919027,
            3.6973317817080975,
            3.57518163
        ]
    },
    "phonon": {
        "lowest_freq": -0.15800060229059357,
        "frequency": [
            -0.15800060229059357,
            -0.03798294291131926,
            -0.034531317112398194,
            2.045447253990421,
            2.478186600050135,
            2.5211615050526115,
            3.18476613784008,
            3.72811734904666,
            4.040534485652205,
            4.134354284878307,
            4.253553815145707,
            4.634010502259518,
            4.891105531870709,
            5.368160682102589,
            5.578939872239148,
            5.738829425270146,
            6.024986546352887,
            6.386928985253109,
            6.548256362331688,
            6.597707460958792,
            6.624432024710055,
            6.721359415833021,
            6.741745636939718,
            7.106723324143721,
            7.229765778647069,
            7.467300499415656,
            7.617640430690616,
            7.791307870357605,
            8.100930073188126,
            8.368271692714776,
            8.631961470167491,
            8.691346050252925,
            8.70985384203603,
            9.097809978002482,
            9.099487429710313,
            9.521961491955443,
            9.57453146576471,
            9.687893184688534,
            9.790391992434659,
            9.89729044620004,
            10.108653237116883,
            10.315553397730586,
            10.373736576236308,
            10.486840399295092,
            10.639866767434807,
            10.65548155146324,
            10.685408039144034,
            11.034905356307997,
            11.044576976648123,
            11.112469507486793,
            11.29691728102356,
            11.304967809513391,
            11.718537010871836,
            11.797043835533925,
            12.295399919722861,
            12.308440108415367,
            12.316993267746366,
            12.33758108532853,
            12.39935930772351,
            12.744185366271836,
            12.89958030492213,
            13.268437119070054,
            13.51886142674612,
            13.57237289186818,
            13.577621365546461,
            13.642359674357374,
            13.695367363023653,
            13.812632347353924,
            14.304272537942424,
            14.68032770306486,
            14.744877418437452,
            14.824429146394198,
            14.867064764854977,
            14.961938698864788,
            15.18606225401491,
            15.64123623236469,
            15.773137524437132,
            16.06752000046062,
            16.164589183138755,
            16.748622071449862,
            17.34005780479789,
            17.510457787822197,
            17.63172571516292,
            17.97103164814788,
            18.016214021960568,
            18.56695678821347,
            18.658237020966876,
            20.89176894732226,
            22.704329857026366,
            24.161183221178263
        ]
    },
    "born_effective_charge": {
        "avg_abs_trace": 2.124038444444445,
        "tensors": [
            [
                [
                    1.23583,
                    -0.11413,
                    0.01534
                ],
                [
                    -0.11539,
                    1.11198,
                    0.0216
                ],
                [
                    0.0061,
                    0.02974,
                    0.98241
                ]
            ],
            [
                [
                    1.23583,
                    0.11413,
                    0.01534
                ],
                [
                    0.11539,
                    1.11198,
                    -0.0216
                ],
                [
                    0.0061,
                    -0.02975,
                    0.98241
                ]
            ],
            [
                [
                    1.23583,
                    -0.11413,
                    0.01534
                ],
                [
                    -0.1154,
                    1.11197,
                    0.02161
                ],
                [
                    0.0061,
                    0.02975,
                    0.98241
                ]
            ],
            [
                [
                    1.12242,
                    -0.1142,
                    -0.01742
                ],
                [
                    -0.17072,
                    0.75078,
                    0.09312
                ],
                [
                    -0.04497,
                    0.0369,
                    0.97754
                ]
            ],
            [
                [
                    0.73762,
                    0.06788,
                    -0.0644
                ],
                [
                    0.12802,
                    1.1683,
                    0.07706
                ],
                [
                    -0.00429,
                    0.06017,
                    0.97815
                ]
            ],
            [
                [
                    0.73761,
                    -0.06788,
                    -0.0644
                ],
                [
                    -0.12802,
                    1.1683,
                    -0.07706
                ],
                [
                    -0.0043,
                    -0.06017,
                    0.97815
                ]
            ],
            [
                [
                    0.73761,
                    0.06788,
                    -0.0644
                ],
                [
                    0.128,
                    1.16831,
                    0.07706
                ],
                [
                    -0.0043,
                    0.06017,
                    0.97815
                ]
            ],
            [
                [
                    0.73762,
                    -0.06788,
                    -0.0644
                ],
                [
                    -0.128,
                    1.16831,
                    -0.07706
                ],
                [
                    -0.00429,
                    -0.06017,
                    0.97815
                ]
            ],
            [
                [
                    1.12242,
                    0.1142,
                    -0.01742
                ],
                [
                    0.17071,
                    0.75078,
                    -0.09313
                ],
                [
                    -0.04497,
                    -0.0369,
                    0.97754
                ]
            ],
            [
                [
                    1.12243,
                    -0.1142,
                    -0.01742
                ],
                [
                    -0.17071,
                    0.75078,
                    0.09313
                ],
                [
                    -0.04498,
                    0.0369,
                    0.97754
                ]
            ],
            [
                [
                    1.12243,
                    0.1142,
                    -0.01742
                ],
                [
                    0.17072,
                    0.75078,
                    -0.09312
                ],
                [
                    -0.04498,
                    -0.0369,
                    0.97754
                ]
            ],
            [
                [
                    1.23583,
                    0.11413,
                    0.01534
                ],
                [
                    0.1154,
                    1.11197,
                    -0.02161
                ],
                [
                    0.0061,
                    -0.02974,
                    0.98241
                ]
            ],
            [
                [
                    4.60045,
                    -0.31448,
                    0.07566
                ],
                [
                    -0.37822,
                    4.90911,
                    -0.20072
                ],
                [
                    0.07325,
                    -0.03196,
                    5.32077
                ]
            ],
            [
                [
                    4.60046,
                    0.31455,
                    0.07527
                ],
                [
                    0.37822,
                    4.90911,
                    0.20072
                ],
                [
                    0.07329,
                    0.03192,
                    5.32077
                ]
            ],
            [
                [
                    4.60046,
                    -0.31455,
                    0.07527
                ],
                [
                    -0.37777,
                    4.90924,
                    -0.20087
                ],
                [
                    0.07329,
                    -0.03192,
                    5.32077
                ]
            ],
            [
                [
                    4.60045,
                    0.31448,
                    0.07566
                ],
                [
                    0.37777,
                    4.90924,
                    0.20087
                ],
                [
                    0.07325,
                    0.03196,
                    5.32077
                ]
            ],
            [
                [
                    -1.79592,
                    -0.94319,
                    0.65712
                ],
                [
                    -0.96201,
                    -2.92645,
                    1.05587
                ],
                [
                    0.60146,
                    1.00304,
                    -2.53071
                ]
            ],
            [
                [
                    -1.79601,
                    0.94316,
                    0.65717
                ],
                [
                    0.96201,
                    -2.92645,
                    -1.05587
                ],
                [
                    0.60152,
                    -1.00301,
                    -2.53076
                ]
            ],
            [
                [
                    -1.79601,
                    -0.94316,
                    0.65717
                ],
                [
                    -0.96199,
                    -2.92647,
                    1.05584
                ],
                [
                    0.60152,
                    1.00301,
                    -2.53076
                ]
            ],
            [
                [
                    -1.79592,
                    0.94319,
                    0.65712
                ],
                [
                    0.96199,
                    -2.92647,
                    -1.05584
                ],
                [
                    0.60146,
                    -1.00304,
                    -2.53071
                ]
            ],
            [
                [
                    -3.57146,
                    -1e-05,
                    -1.3139
                ],
                [
                    -0.0,
                    -1.27253,
                    0.0
                ],
                [
                    -1.25367,
                    -2e-05,
                    -2.54414
                ]
            ],
            [
                [
                    -3.57146,
                    1e-05,
                    -1.3139
                ],
                [
                    -0.0,
                    -1.27243,
                    0.0
                ],
                [
                    -1.25367,
                    2e-05,
                    -2.54414
                ]
            ],
            [
                [
                    -2.21159,
                    0.03697,
                    -0.32649
                ],
                [
                    0.04387,
                    -2.11877,
                    -0.52278
                ],
                [
                    -0.32635,
                    -0.5307,
                    -2.441
                ]
            ],
            [
                [
                    -2.2116,
                    -0.03699,
                    -0.32649
                ],
                [
                    -0.04387,
                    -2.11877,
                    0.52278
                ],
                [
                    -0.32635,
                    0.53071,
                    -2.44099
                ]
            ],
            [
                [
                    -2.2116,
                    0.03699,
                    -0.32649
                ],
                [
                    0.04374,
                    -2.11893,
                    -0.52281
                ],
                [
                    -0.32635,
                    -0.53071,
                    -2.44099
                ]
            ],
            [
                [
                    -2.21159,
                    -0.03697,
                    -0.32649
                ],
                [
                    -0.04374,
                    -2.11893,
                    0.52281
                ],
                [
                    -0.32635,
                    0.5307,
                    -2.441
                ]
            ],
            [
                [
                    -1.90303,
                    0.32203,
                    0.31728
                ],
                [
                    0.31788,
                    -2.25875,
                    -0.54195
                ],
                [
                    0.3216,
                    -0.55701,
                    -2.01508
                ]
            ],
            [
                [
                    -1.90304,
                    -0.322,
                    0.31734
                ],
                [
                    -0.31788,
                    -2.25875,
                    0.54195
                ],
                [
                    0.32161,
                    0.55695,
                    -2.01506
                ]
            ],
            [
                [
                    -1.90304,
                    0.322,
                    0.31734
                ],
                [
                    0.31811,
                    -2.25863,
                    -0.54195
                ],
                [
                    0.32161,
                    -0.55695,
                    -2.01506
                ]
            ],
            [
                [
                    -1.90303,
                    -0.32203,
                    0.31728
                ],
                [
                    -0.31811,
                    -2.25863,
                    0.54195
                ],
                [
                    0.3216,
                    0.55701,
                    -2.01508
                ]
            ]
        ]
    },
    "band_gap": 4.309900000000001,
    "is_direct": false,
    "formula": "Li6Zr2O7"
}