{
    "mp_id": "mp-555318",
    "nelements": 4,
    "nsites": 22,
    "elements": [
        "K",
        "O",
        "Si",
        "Zn"
    ],
    "structure": {
        "@module": "pymatgen.core.structure",
        "@class": "Structure",
        "charge": null,
        "lattice": {
            "matrix": [
                [
                    3.16873385,
                    -4.74076728,
                    0.0
                ],
                [
                    3.16873385,
                    4.74076728,
                    0.0
                ],
                [
                    0.0,
                    0.0,
                    10.43856589
                ]
            ],
            "a": 5.702258203137983,
            "b": 5.702258203137983,
            "c": 10.43856589,
            "alpha": 90.0,
            "beta": 90.0,
            "gamma": 112.48238152543573,
            "volume": 313.6210702268358
        },
        "sites": [
            {
                "species": [
                    {
                        "element": "K",
                        "occu": 1
                    }
                ],
                "abc": [
                    0.28227581,
                    0.93338707,
                    0.57601959
                ],
                "xyz": [
                    3.8521121180444884,
                    3.0867669570475726,
                    6.012818444145785
                ],
                "label": "K",
                "properties": {}
            },
            {
                "species": [
                    {
                        "element": "K",
                        "occu": 1
                    }
                ],
                "abc": [
                    0.06661293,
                    0.71772419,
                    0.92398041
                ],
                "xyz": [
                    2.485355581955512,
                    3.0867669570475726,
                    9.645030390854215
                ],
                "label": "K",
                "properties": {}
            },
            {
                "species": [
                    {
                        "element": "K",
                        "occu": 1
                    }
                ],
                "abc": [
                    0.71772419,
                    0.06661293,
                    0.07601959
                ],
                "xyz": [
                    2.485355581955512,
                    -3.0867669570475726,
                    0.793535499145785
                ],
                "label": "K",
                "properties": {}
            },
            {
                "species": [
                    {
                        "element": "K",
                        "occu": 1
                    }
                ],
                "abc": [
                    0.93338707,
                    0.28227581,
                    0.42398041
                ],
                "xyz": [
                    3.8521121180444884,
                    -3.0867669570475726,
                    4.425747445854214
                ],
                "label": "K",
                "properties": {}
            },
            {
                "species": [
                    {
                        "element": "Zn",
                        "occu": 1
                    }
                ],
                "abc": [
                    0.19291194,
                    0.80708806,
                    0.25
                ],
                "xyz": [
                    3.16873385,
                    2.911666053853353,
                    2.6096414725
                ],
                "label": "Zn",
                "properties": {}
            },
            {
                "species": [
                    {
                        "element": "Zn",
                        "occu": 1
                    }
                ],
                "abc": [
                    0.80708806,
                    0.19291194,
                    0.75
                ],
                "xyz": [
                    3.16873385,
                    -2.911666053853353,
                    7.8289244175
                ],
                "label": "Zn",
                "properties": {}
            },
            {
                "species": [
                    {
                        "element": "Si",
                        "occu": 1
                    }
                ],
                "abc": [
                    0.36394682,
                    0.32884324,
                    0.86209538
                ],
                "xyz": [
                    2.195267314065531,
                    -0.16641790347486252,
                    8.999039427594587
                ],
                "label": "Si",
                "properties": {}
            },
            {
                "species": [
                    {
                        "element": "Si",
                        "occu": 1
                    }
                ],
                "abc": [
                    0.32884324,
                    0.36394682,
                    0.13790462
                ],
                "xyz": [
                    2.195267314065531,
                    0.16641790347486252,
                    1.4395264624054118
                ],
                "label": "Si",
                "properties": {}
            },
            {
                "species": [
                    {
                        "element": "Si",
                        "occu": 1
                    }
                ],
                "abc": [
                    0.67115676,
                    0.63605318,
                    0.63790462
                ],
                "xyz": [
                    4.142200385934469,
                    -0.16641790347486252,
                    6.658809407405412
                ],
                "label": "Si",
                "properties": {}
            },
            {
                "species": [
                    {
                        "element": "Si",
                        "occu": 1
                    }
                ],
                "abc": [
                    0.63605318,
                    0.67115676,
                    0.36209538
                ],
                "xyz": [
                    4.142200385934469,
                    0.16641790347486252,
                    3.779756482594588
                ],
                "label": "Si",
                "properties": {}
            },
            {
                "species": [
                    {
                        "element": "O",
                        "occu": 1
                    }
                ],
                "abc": [
                    0.55084435,
                    0.44915565,
                    0.25
                ],
                "xyz": [
                    3.16873385,
                    -0.482082461705736,
                    2.6096414725
                ],
                "label": "O",
                "properties": {}
            },
            {
                "species": [
                    {
                        "element": "O",
                        "occu": 1
                    }
                ],
                "abc": [
                    0.5143332,
                    0.88008015,
                    0.33403043
                ],
                "xyz": [
                    4.418524783036898,
                    1.733921173319796,
                    3.4867986528200325
                ],
                "label": "O",
                "properties": {}
            },
            {
                "species": [
                    {
                        "element": "O",
                        "occu": 1
                    }
                ],
                "abc": [
                    0.51778337,
                    0.51778337,
                    0.5
                ],
                "xyz": [
                    3.2814353829721488,
                    0.0,
                    5.219282945
                ],
                "label": "O",
                "properties": {}
            },
            {
                "species": [
                    {
                        "element": "O",
                        "occu": 1
                    }
                ],
                "abc": [
                    0.88008015,
                    0.5143332,
                    0.66596957
                ],
                "xyz": [
                    4.418524783036898,
                    -1.733921173319796,
                    6.9517672371799675
                ],
                "label": "O",
                "properties": {}
            },
            {
                "species": [
                    {
                        "element": "O",
                        "occu": 1
                    }
                ],
                "abc": [
                    0.4856668,
                    0.11991985,
                    0.83403043
                ],
                "xyz": [
                    1.9189429169631027,
                    -1.7339211733197963,
                    8.706081597820033
                ],
                "label": "O",
                "properties": {}
            },
            {
                "species": [
                    {
                        "element": "O",
                        "occu": 1
                    }
                ],
                "abc": [
                    0.0574617,
                    0.21448645,
                    0.8738622
                ],
                "xyz": [
                    0.8617313083498775,
                    0.74441779695018,
                    9.121868153480358
                ],
                "label": "O",
                "properties": {}
            },
            {
                "species": [
                    {
                        "element": "O",
                        "occu": 1
                    }
                ],
                "abc": [
                    0.9425383,
                    0.78551355,
                    0.3738622
                ],
                "xyz": [
                    5.475736391650123,
                    -0.7444177969501808,
                    3.9025852084803576
                ],
                "label": "O",
                "properties": {}
            },
            {
                "species": [
                    {
                        "element": "O",
                        "occu": 1
                    }
                ],
                "abc": [
                    0.44915565,
                    0.55084435,
                    0.75
                ],
                "xyz": [
                    3.16873385,
                    0.482082461705736,
                    7.8289244175
                ],
                "label": "O",
                "properties": {}
            },
            {
                "species": [
                    {
                        "element": "O",
                        "occu": 1
                    }
                ],
                "abc": [
                    0.11991985,
                    0.4856668,
                    0.16596957
                ],
                "xyz": [
                    1.9189429169631027,
                    1.7339211733197963,
                    1.7324842921799672
                ],
                "label": "O",
                "properties": {}
            },
            {
                "species": [
                    {
                        "element": "O",
                        "occu": 1
                    }
                ],
                "abc": [
                    0.21448645,
                    0.0574617,
                    0.1261378
                ],
                "xyz": [
                    0.8617313083498775,
                    -0.74441779695018,
                    1.316697736519642
                ],
                "label": "O",
                "properties": {}
            },
            {
                "species": [
                    {
                        "element": "O",
                        "occu": 1
                    }
                ],
                "abc": [
                    0.78551355,
                    0.9425383,
                    0.6261378
                ],
                "xyz": [
                    5.475736391650123,
                    0.7444177969501808,
                    6.535980681519641
                ],
                "label": "O",
                "properties": {}
            },
            {
                "species": [
                    {
                        "element": "O",
                        "occu": 1
                    }
                ],
                "abc": [
                    0.48221663,
                    0.48221663,
                    0.0
                ],
                "xyz": [
                    3.056032317027851,
                    0.0,
                    0.0
                ],
                "label": "O",
                "properties": {}
            }
        ]
    },
    "spacegroup": {
        "source": "spglib",
        "symbol": "C222_1",
        "number": 20,
        "point_group": "222",
        "crystal_system": "orthorhombic",
        "hall": "C 2c 2"
    },
    "dielectric": {
        "epsilon_ionic": [
            [
                4.06627004,
                0.0,
                0.0
            ],
            [
                0.0,
                4.48355102,
                -0.0
            ],
            [
                0.0,
                -0.0,
                8.21439536
            ]
        ],
        "epsilon_ionic_avg": 5.588072139999999,
        "epsilon_ionic_eig": [
            4.06627004,
            4.48355102,
            8.21439536
        ],
        "epsilon_electronic": [
            [
                2.62987709,
                0.0,
                0.0
            ],
            [
                0.0,
                2.68105038,
                0.0
            ],
            [
                0.0,
                0.0,
                2.69064738
            ]
        ],
        "epsilon_electronic_avg": 2.6671916166666665,
        "epsilon_electronic_eig": [
            2.62987709,
            2.68105038,
            2.69064738
        ]
    },
    "phonon": {
        "lowest_freq": -0.09802355341670271,
        "frequency": [
            -0.09802355341670271,
            -0.07994005154818452,
            -0.07074636526100768,
            0.7769283464902458,
            1.9341312549162872,
            2.1246319493553387,
            2.778326284692042,
            2.8003398662748684,
            2.853052301787757,
            2.9385818423702257,
            3.5248597179628596,
            3.5340996402918172,
            3.536773310326346,
            3.780648429585849,
            3.836029887412246,
            3.901067412889784,
            3.9300493347178245,
            4.16902046239131,
            4.238735864626688,
            4.4847526417635315,
            4.610112161517863,
            4.830227889101776,
            5.262418321494373,
            5.368679399914565,
            5.978171087177118,
            5.996278774753383,
            6.102539544082424,
            6.700448210282829,
            6.814870273795931,
            7.5298410342140265,
            7.55771658713741,
            8.650481468321303,
            9.368787329825441,
            9.478394112123912,
            10.42906179270388,
            10.841038453696079,
            10.871320403707902,
            10.962051430590682,
            11.46488741013289,
            11.559081655046365,
            12.737728642510145,
            12.94647420465067,
            13.444509135848492,
            14.025213745515522,
            14.041600409565666,
            14.375857888618373,
            14.782249941674719,
            15.33229051674113,
            15.834407234190419,
            16.676726114678328,
            20.024947280631807,
            20.25410757252951,
            20.918946174588473,
            22.120734642809705,
            25.137933502278933,
            26.307267897398663,
            27.229525893194822,
            27.42596054371561,
            27.9985957602198,
            28.6249484351636,
            28.85510159887892,
            28.91313581478857,
            29.006954220849547,
            29.063634275093598,
            29.534828774855335,
            30.476637047426795
        ]
    },
    "born_effective_charge": {
        "avg_abs_trace": 1.8571406060606057,
        "tensors": [
            [
                [
                    1.24748,
                    -0.107,
                    0.06897
                ],
                [
                    -0.11678,
                    1.17405,
                    0.02282
                ],
                [
                    0.0318,
                    0.0079,
                    1.20666
                ]
            ],
            [
                [
                    1.24747,
                    0.10698,
                    0.06894
                ],
                [
                    0.11678,
                    1.17405,
                    -0.02282
                ],
                [
                    0.03178,
                    -0.0079,
                    1.20667
                ]
            ],
            [
                [
                    1.24747,
                    -0.10698,
                    -0.06894
                ],
                [
                    -0.11679,
                    1.17407,
                    -0.02278
                ],
                [
                    -0.0318,
                    -0.0079,
                    1.20666
                ]
            ],
            [
                [
                    1.24748,
                    0.107,
                    -0.06897
                ],
                [
                    0.11679,
                    1.17407,
                    0.02278
                ],
                [
                    -0.03178,
                    0.0079,
                    1.20667
                ]
            ],
            [
                [
                    1.88446,
                    -6e-05,
                    -0.27999
                ],
                [
                    0.0,
                    2.21161,
                    0.0
                ],
                [
                    -0.02885,
                    -3e-05,
                    1.74944
                ]
            ],
            [
                [
                    1.88446,
                    6e-05,
                    0.27999
                ],
                [
                    0.0,
                    2.21168,
                    0.0
                ],
                [
                    0.02885,
                    3e-05,
                    1.74944
                ]
            ],
            [
                [
                    2.684,
                    -0.2016,
                    -0.46456
                ],
                [
                    -0.18864,
                    2.85252,
                    0.19975
                ],
                [
                    -0.02066,
                    0.0016,
                    3.23393
                ]
            ],
            [
                [
                    2.684,
                    0.2016,
                    0.46456
                ],
                [
                    0.18872,
                    2.85252,
                    0.19973
                ],
                [
                    0.02065,
                    0.00161,
                    3.23396
                ]
            ],
            [
                [
                    2.68394,
                    0.20164,
                    -0.46457
                ],
                [
                    0.18864,
                    2.85252,
                    -0.19975
                ],
                [
                    -0.02065,
                    -0.00161,
                    3.23396
                ]
            ],
            [
                [
                    2.68394,
                    -0.20164,
                    0.46457
                ],
                [
                    -0.18872,
                    2.85252,
                    -0.19973
                ],
                [
                    0.02066,
                    -0.0016,
                    3.23393
                ]
            ],
            [
                [
                    -1.73157,
                    -5e-05,
                    -0.92527
                ],
                [
                    0.0,
                    -1.32186,
                    0.0
                ],
                [
                    -0.9208,
                    1e-05,
                    -2.01405
                ]
            ],
            [
                [
                    -1.41647,
                    0.16997,
                    -0.17873
                ],
                [
                    0.1196,
                    -2.09544,
                    0.29553
                ],
                [
                    -0.15815,
                    0.31406,
                    -1.45782
                ]
            ],
            [
                [
                    -1.44529,
                    -0.0,
                    0.0
                ],
                [
                    -1e-05,
                    -1.17606,
                    0.23922
                ],
                [
                    -2e-05,
                    0.18305,
                    -2.63769
                ]
            ],
            [
                [
                    -1.41647,
                    -0.16997,
                    0.17873
                ],
                [
                    -0.11951,
                    -2.09551,
                    0.29541
                ],
                [
                    0.15818,
                    0.31402,
                    -1.4578
                ]
            ],
            [
                [
                    -1.4165,
                    0.16972,
                    0.17875
                ],
                [
                    0.11951,
                    -2.09551,
                    -0.29541
                ],
                [
                    0.15815,
                    -0.31406,
                    -1.45782
                ]
            ],
            [
                [
                    -1.86865,
                    0.57067,
                    -0.14677
                ],
                [
                    0.56423,
                    -1.78796,
                    0.15586
                ],
                [
                    -0.23005,
                    0.20278,
                    -1.53163
                ]
            ],
            [
                [
                    -1.86882,
                    0.57093,
                    0.1467
                ],
                [
                    0.5643,
                    -1.78803,
                    -0.156
                ],
                [
                    0.23005,
                    -0.20278,
                    -1.53163
                ]
            ],
            [
                [
                    -1.73157,
                    5e-05,
                    0.92527
                ],
                [
                    0.0,
                    -1.32176,
                    0.0
                ],
                [
                    0.9208,
                    -1e-05,
                    -2.01405
                ]
            ],
            [
                [
                    -1.4165,
                    -0.16972,
                    -0.17875
                ],
                [
                    -0.1196,
                    -2.09544,
                    -0.29553
                ],
                [
                    -0.15818,
                    -0.31402,
                    -1.4578
                ]
            ],
            [
                [
                    -1.86865,
                    -0.57067,
                    0.14677
                ],
                [
                    -0.5643,
                    -1.78803,
                    0.156
                ],
                [
                    0.23008,
                    0.20281,
                    -1.53168
                ]
            ],
            [
                [
                    -1.86882,
                    -0.57093,
                    -0.1467
                ],
                [
                    -0.56423,
                    -1.78796,
                    -0.15586
                ],
                [
                    -0.23008,
                    -0.20281,
                    -1.53168
                ]
            ],
            [
                [
                    -1.44538,
                    -0.0,
                    0.0
                ],
                [
                    1e-05,
                    -1.17606,
                    -0.23922
                ],
                [
                    2e-05,
                    -0.18305,
                    -2.63769
                ]
            ]
        ]
    },
    "band_gap": 4.2249,
    "is_direct": false,
    "formula": "K2Zn(SiO3)2"
}