{
    "mp_id": "mp-5769",
    "nelements": 3,
    "nsites": 16,
    "elements": [
        "Li",
        "O",
        "Sb"
    ],
    "structure": {
        "@module": "pymatgen.core.structure",
        "@class": "Structure",
        "charge": null,
        "lattice": {
            "matrix": [
                [
                    5.13036846,
                    0.0,
                    -0.00027951
                ],
                [
                    0.0,
                    6.09293182,
                    0.0
                ],
                [
                    -1.63604122,
                    0.0,
                    4.86137411
                ]
            ],
            "a": 5.1303684676140575,
            "b": 6.09293182,
            "c": 5.129287388216552,
            "alpha": 90.0,
            "beta": 108.60320709399647,
            "gamma": 90.0,
            "volume": 151.9588353060722
        },
        "sites": [
            {
                "species": [
                    {
                        "element": "Li",
                        "occu": 1
                    }
                ],
                "abc": [
                    0.5,
                    0.57321742,
                    0.75
                ],
                "xyz": [
                    1.3381533149999998,
                    3.4925746580963044,
                    3.6458908274999997
                ],
                "label": "Li",
                "properties": {}
            },
            {
                "species": [
                    {
                        "element": "Li",
                        "occu": 1
                    }
                ],
                "abc": [
                    0.5,
                    0.42678258,
                    0.25
                ],
                "xyz": [
                    2.156173925,
                    2.600357161903696,
                    1.2152037725
                ],
                "label": "Li",
                "properties": {}
            },
            {
                "species": [
                    {
                        "element": "Li",
                        "occu": 1
                    }
                ],
                "abc": [
                    0.0,
                    0.3892011,
                    0.75
                ],
                "xyz": [
                    -1.227030915,
                    2.3713757665690025,
                    3.6460305825
                ],
                "label": "Li",
                "properties": {}
            },
            {
                "species": [
                    {
                        "element": "Li",
                        "occu": 1
                    }
                ],
                "abc": [
                    0.0,
                    0.6107989,
                    0.25
                ],
                "xyz": [
                    -0.409010305,
                    3.7215560534309984,
                    1.2153435275
                ],
                "label": "Li",
                "properties": {}
            },
            {
                "species": [
                    {
                        "element": "Li",
                        "occu": 1
                    }
                ],
                "abc": [
                    0.5,
                    0.85231294,
                    0.25
                ],
                "xyz": [
                    2.156173925,
                    5.193084632723751,
                    1.2152037725
                ],
                "label": "Li",
                "properties": {}
            },
            {
                "species": [
                    {
                        "element": "Li",
                        "occu": 1
                    }
                ],
                "abc": [
                    0.5,
                    0.14768706,
                    0.75
                ],
                "xyz": [
                    1.3381533149999998,
                    0.8998471872762493,
                    3.6458908274999997
                ],
                "label": "Li",
                "properties": {}
            },
            {
                "species": [
                    {
                        "element": "Sb",
                        "occu": 1
                    }
                ],
                "abc": [
                    0.0,
                    0.85577228,
                    0.75
                ],
                "xyz": [
                    -1.227030915,
                    5.21416215548595,
                    3.6460305825
                ],
                "label": "Sb",
                "properties": {}
            },
            {
                "species": [
                    {
                        "element": "Sb",
                        "occu": 1
                    }
                ],
                "abc": [
                    0.0,
                    0.14422772,
                    0.25
                ],
                "xyz": [
                    -0.409010305,
                    0.8787696645140505,
                    1.2153435275
                ],
                "label": "Sb",
                "properties": {}
            },
            {
                "species": [
                    {
                        "element": "O",
                        "occu": 1
                    }
                ],
                "abc": [
                    0.22543804,
                    0.89726752,
                    0.49397526
                ],
                "xyz": [
                    0.34841632308000103,
                    5.466989823660486,
                    2.401335527757958
                ],
                "label": "O",
                "properties": {}
            },
            {
                "species": [
                    {
                        "element": "O",
                        "occu": 1
                    }
                ],
                "abc": [
                    0.24615285,
                    0.3623986,
                    0.4781218
                ],
                "xyz": [
                    0.4806278449985151,
                    2.2080699614634525,
                    2.324260137763494
                ],
                "label": "O",
                "properties": {}
            },
            {
                "species": [
                    {
                        "element": "O",
                        "occu": 1
                    }
                ],
                "abc": [
                    0.24615285,
                    0.6376014,
                    0.9781218
                ],
                "xyz": [
                    -0.3373927650014852,
                    3.884861858536548,
                    4.7549471927634945
                ],
                "label": "O",
                "properties": {}
            },
            {
                "species": [
                    {
                        "element": "O",
                        "occu": 1
                    }
                ],
                "abc": [
                    0.75384715,
                    0.6376014,
                    0.5218782
                ],
                "xyz": [
                    3.0136993950014848,
                    3.884861858536548,
                    2.536834462236505
                ],
                "label": "O",
                "properties": {}
            },
            {
                "species": [
                    {
                        "element": "O",
                        "occu": 1
                    }
                ],
                "abc": [
                    0.77456196,
                    0.10273248,
                    0.50602474
                ],
                "xyz": [
                    3.1459109169199984,
                    0.6259419963395136,
                    2.4597590722420413
                ],
                "label": "O",
                "properties": {}
            },
            {
                "species": [
                    {
                        "element": "O",
                        "occu": 1
                    }
                ],
                "abc": [
                    0.22543804,
                    0.10273248,
                    0.99397526
                ],
                "xyz": [
                    -0.469604286919999,
                    0.6259419963395136,
                    4.832022582757959
                ],
                "label": "O",
                "properties": {}
            },
            {
                "species": [
                    {
                        "element": "O",
                        "occu": 1
                    }
                ],
                "abc": [
                    0.75384715,
                    0.3623986,
                    0.0218782
                ],
                "xyz": [
                    3.831720005001485,
                    2.2080699614634525,
                    0.1061474072365055
                ],
                "label": "O",
                "properties": {}
            },
            {
                "species": [
                    {
                        "element": "O",
                        "occu": 1
                    }
                ],
                "abc": [
                    0.77456196,
                    0.89726752,
                    0.00602474
                ],
                "xyz": [
                    3.9639315269199984,
                    5.466989823660486,
                    0.0290720172420418
                ],
                "label": "O",
                "properties": {}
            }
        ]
    },
    "spacegroup": {
        "source": "spglib",
        "symbol": "P2/c",
        "number": 13,
        "point_group": "2/m",
        "crystal_system": "monoclinic",
        "hall": "-P 2yc"
    },
    "dielectric": {
        "epsilon_ionic": [
            [
                8.8339544,
                0.0,
                -0.39516147
            ],
            [
                0.0,
                9.56505681,
                0.0
            ],
            [
                -0.39516147,
                0.0,
                10.77538057
            ]
        ],
        "epsilon_ionic_avg": 9.72479726,
        "epsilon_ionic_eig": [
            8.756604280435134,
            10.852730689564867,
            9.56505681
        ],
        "epsilon_electronic": [
            [
                3.27875475,
                0.0,
                -0.07345518
            ],
            [
                0.0,
                3.5411198,
                0.0
            ],
            [
                -0.07346311,
                0.0,
                3.6868287
            ]
        ],
        "epsilon_electronic_avg": 3.502234416666667,
        "epsilon_electronic_eig": [
            3.2659338610993327,
            3.6996495889006673,
            3.5411198
        ]
    },
    "phonon": {
        "lowest_freq": -0.022112188607424813,
        "frequency": [
            -0.022112188607424813,
            -0.016062279399097067,
            -0.013264353615975936,
            3.961917530024895,
            5.21592361178924,
            6.106623708130673,
            6.190906024973218,
            6.197151378210258,
            6.913451990259365,
            6.961422506925677,
            7.045535020555419,
            7.419589949413557,
            7.641796367367146,
            7.994368826792435,
            8.270464230693515,
            8.377952776679416,
            8.391302193047764,
            8.911155846233626,
            9.011769132060476,
            9.348192878809149,
            9.404947266143752,
            9.548511505075044,
            9.841375283371033,
            10.163581855165955,
            10.56389778991449,
            10.878401546996429,
            11.244271683153082,
            11.956357178072038,
            12.076616007234495,
            12.196844775150234,
            12.439515419050167,
            13.100730423326992,
            13.132281326751942,
            13.20331259292445,
            13.245985470889085,
            14.352694402888664,
            14.618135768857337,
            15.139679895085147,
            15.410856138819073,
            16.410454634361315,
            16.813763185078734,
            17.43926952292457,
            17.623132750899686,
            18.270245632336383,
            19.26750144216893,
            19.588817986130117,
            20.328865408749145,
            21.253961461355768
        ]
    },
    "born_effective_charge": {
        "avg_abs_trace": 1.8684252083333333,
        "tensors": [
            [
                [
                    1.2788,
                    0.0,
                    0.12999
                ],
                [
                    -0.0,
                    1.29785,
                    0.0
                ],
                [
                    0.20419,
                    -0.0,
                    1.09325
                ]
            ],
            [
                [
                    1.2788,
                    -0.0,
                    0.12999
                ],
                [
                    -0.0,
                    1.29786,
                    0.0
                ],
                [
                    0.20419,
                    0.0,
                    1.09325
                ]
            ],
            [
                [
                    0.78382,
                    -0.0,
                    -0.1349
                ],
                [
                    -0.0,
                    1.27229,
                    0.0
                ],
                [
                    -0.18003,
                    2e-05,
                    1.01895
                ]
            ],
            [
                [
                    0.78382,
                    0.0,
                    -0.1349
                ],
                [
                    -0.0,
                    1.27231,
                    0.0
                ],
                [
                    -0.18003,
                    -2e-05,
                    1.01895
                ]
            ],
            [
                [
                    1.38813,
                    -0.0,
                    0.08023
                ],
                [
                    -0.0,
                    0.82231,
                    0.0
                ],
                [
                    0.04395,
                    -0.0,
                    1.12984
                ]
            ],
            [
                [
                    1.38813,
                    0.0,
                    0.08023
                ],
                [
                    -0.0,
                    0.82233,
                    0.0
                ],
                [
                    0.04395,
                    0.0,
                    1.12984
                ]
            ],
            [
                [
                    3.35804,
                    -1e-05,
                    -0.36408
                ],
                [
                    -0.0,
                    4.15115,
                    0.0
                ],
                [
                    -0.37011,
                    -2e-05,
                    4.82665
                ]
            ],
            [
                [
                    3.35804,
                    1e-05,
                    -0.36408
                ],
                [
                    -0.0,
                    4.15117,
                    0.0
                ],
                [
                    -0.37011,
                    2e-05,
                    4.82665
                ]
            ],
            [
                [
                    -1.7532,
                    -0.03633,
                    0.34775
                ],
                [
                    -0.02739,
                    -1.7452,
                    0.36396
                ],
                [
                    0.2942,
                    0.44288,
                    -2.20006
                ]
            ],
            [
                [
                    -1.65122,
                    -0.25888,
                    -0.20339
                ],
                [
                    -0.23373,
                    -2.02643,
                    -0.27739
                ],
                [
                    -0.14318,
                    -0.20084,
                    -1.83426
                ]
            ],
            [
                [
                    -1.65122,
                    0.25888,
                    -0.20339
                ],
                [
                    0.23381,
                    -2.02664,
                    0.2776
                ],
                [
                    -0.14318,
                    0.20084,
                    -1.83426
                ]
            ],
            [
                [
                    -1.65123,
                    -0.25895,
                    -0.20344
                ],
                [
                    -0.23381,
                    -2.02664,
                    -0.2776
                ],
                [
                    -0.1431,
                    -0.20067,
                    -1.83433
                ]
            ],
            [
                [
                    -1.75314,
                    -0.03627,
                    0.34784
                ],
                [
                    -0.02736,
                    -1.74536,
                    0.36414
                ],
                [
                    0.29408,
                    0.44261,
                    -2.20002
                ]
            ],
            [
                [
                    -1.7532,
                    0.03633,
                    0.34775
                ],
                [
                    0.02736,
                    -1.74536,
                    -0.36414
                ],
                [
                    0.2942,
                    -0.44288,
                    -2.20006
                ]
            ],
            [
                [
                    -1.65123,
                    0.25895,
                    -0.20344
                ],
                [
                    0.23373,
                    -2.02643,
                    0.27739
                ],
                [
                    -0.1431,
                    0.20067,
                    -1.83433
                ]
            ],
            [
                [
                    -1.75314,
                    0.03627,
                    0.34784
                ],
                [
                    0.02739,
                    -1.7452,
                    -0.36396
                ],
                [
                    0.29408,
                    -0.44261,
                    -2.20002
                ]
            ]
        ]
    },
    "band_gap": 3.2225,
    "is_direct": false,
    "formula": "Li3SbO4"
}