{
    "mp_id": "mp-557871",
    "nelements": 4,
    "nsites": 14,
    "elements": [
        "As",
        "Cu",
        "O",
        "Pb"
    ],
    "structure": {
        "@module": "pymatgen.core.structure",
        "@class": "Structure",
        "charge": null,
        "lattice": {
            "matrix": [
                [
                    4.86967489,
                    0.00031442,
                    0.00020105
                ],
                [
                    0.49413903,
                    5.71771586,
                    -0.00756806
                ],
                [
                    2.05501627,
                    1.2054033,
                    7.51362144
                ]
            ],
            "a": 4.869674904300855,
            "b": 5.739033482407734,
            "c": 7.882296374105915,
            "alpha": 80.00582302551929,
            "beta": 74.88471164182599,
            "gamma": 85.05693894359221,
            "volume": 209.2459066542645
        },
        "sites": [
            {
                "species": [
                    {
                        "element": "Cu",
                        "occu": 1
                    }
                ],
                "abc": [
                    0.37390425,
                    0.80498487,
                    0.99138408
                ],
                "xyz": [
                    4.25587699453474,
                    5.797809962832788,
                    7.442867678416885
                ],
                "label": "Cu",
                "properties": {}
            },
            {
                "species": [
                    {
                        "element": "Cu",
                        "occu": 1
                    }
                ],
                "abc": [
                    0.62609575,
                    0.19501513,
                    0.00861592
                ],
                "xyz": [
                    3.1629531954652594,
                    1.1256236171672127,
                    0.06338675158311449
                ],
                "label": "Cu",
                "properties": {}
            },
            {
                "species": [
                    {
                        "element": "As",
                        "occu": 1
                    }
                ],
                "abc": [
                    0.57784558,
                    0.79439431,
                    0.31289308
                ],
                "xyz": [
                    3.849461715174817,
                    4.9194649827671855,
                    2.3450643063677554
                ],
                "label": "As",
                "properties": {}
            },
            {
                "species": [
                    {
                        "element": "As",
                        "occu": 1
                    }
                ],
                "abc": [
                    0.42215442,
                    0.20560569,
                    0.68710692
                ],
                "xyz": [
                    3.5693684748251826,
                    2.0039685972328156,
                    5.1611901236322435
                ],
                "label": "As",
                "properties": {}
            },
            {
                "species": [
                    {
                        "element": "Pb",
                        "occu": 1
                    }
                ],
                "abc": [
                    0.07028585,
                    0.28632891,
                    0.31722113
                ],
                "xyz": [
                    1.1356501120534488,
                    2.0195488460921984,
                    2.3813266601885554
                ],
                "label": "Pb",
                "properties": {}
            },
            {
                "species": [
                    {
                        "element": "Pb",
                        "occu": 1
                    }
                ],
                "abc": [
                    0.92971415,
                    0.71367109,
                    0.68277887
                ],
                "xyz": [
                    6.283180077946551,
                    4.903884733907801,
                    5.124927769811444
                ],
                "label": "Pb",
                "properties": {}
            },
            {
                "species": [
                    {
                        "element": "O",
                        "occu": 1
                    }
                ],
                "abc": [
                    0.77296297,
                    0.03218367,
                    0.18784976
                ],
                "xyz": [
                    4.166015886500058,
                    0.4106948360172416,
                    1.4113438204943927
                ],
                "label": "O",
                "properties": {}
            },
            {
                "species": [
                    {
                        "element": "O",
                        "occu": 1
                    }
                ],
                "abc": [
                    0.22703703,
                    0.96781633,
                    0.81215024
                ],
                "xyz": [
                    3.2528143034999415,
                    6.512738743982759,
                    6.094910609505607
                ],
                "label": "O",
                "properties": {}
            },
            {
                "species": [
                    {
                        "element": "O",
                        "occu": 1
                    }
                ],
                "abc": [
                    0.22341569,
                    0.38088511,
                    0.56175922
                ],
                "xyz": [
                    2.4305963113443765,
                    2.8550094982395207,
                    4.218008475868564
                ],
                "label": "O",
                "properties": {}
            },
            {
                "species": [
                    {
                        "element": "O",
                        "occu": 1
                    }
                ],
                "abc": [
                    0.49380563,
                    0.37794487,
                    0.82932291
                ],
                "xyz": [
                    4.295702261540653,
                    3.160805212250426,
                    6.228457367428249
                ],
                "label": "O",
                "properties": {}
            },
            {
                "species": [
                    {
                        "element": "O",
                        "occu": 1
                    }
                ],
                "abc": [
                    0.7312076,
                    0.09189562,
                    0.56186141
                ],
                "xyz": [
                    4.760786840660353,
                    1.202932547988778,
                    4.221065474206712
                ],
                "label": "O",
                "properties": {}
            },
            {
                "species": [
                    {
                        "element": "O",
                        "occu": 1
                    }
                ],
                "abc": [
                    0.2687924,
                    0.90810438,
                    0.43813859
                ],
                "xyz": [
                    2.6580433493396463,
                    5.720501032011223,
                    3.2851889557932865
                ],
                "label": "O",
                "properties": {}
            },
            {
                "species": [
                    {
                        "element": "O",
                        "occu": 1
                    }
                ],
                "abc": [
                    0.77658431,
                    0.61911489,
                    0.43824078
                ],
                "xyz": [
                    4.988233878655623,
                    4.0684240817604795,
                    3.288245954131435
                ],
                "label": "O",
                "properties": {}
            },
            {
                "species": [
                    {
                        "element": "O",
                        "occu": 1
                    }
                ],
                "abc": [
                    0.50619437,
                    0.62205513,
                    0.17067709
                ],
                "xyz": [
                    3.1231279284593474,
                    3.762628367749574,
                    1.2777970625717503
                ],
                "label": "O",
                "properties": {}
            }
        ]
    },
    "spacegroup": {
        "source": "spglib",
        "symbol": "P-1",
        "number": 2,
        "point_group": "-1",
        "crystal_system": "triclinic",
        "hall": "-P 1"
    },
    "dielectric": {
        "epsilon_ionic": [
            [
                9.46865116,
                2.86780248,
                -0.20125906
            ],
            [
                2.86780248,
                10.87684967,
                0.50892563
            ],
            [
                -0.20125906,
                0.50892563,
                3.52637403
            ]
        ],
        "epsilon_ionic_avg": 7.957291620000002,
        "epsilon_ionic_eig": [
            13.133699562792717,
            7.279043395646401,
            3.4591319015608883
        ],
        "epsilon_electronic": [
            [
                4.4760954,
                -0.01847515,
                -0.07625399
            ],
            [
                -0.01847735,
                4.76888969,
                0.11988343
            ],
            [
                -0.076251,
                0.11988823,
                4.54304928
            ]
        ],
        "epsilon_electronic_avg": 4.596011456666669,
        "epsilon_electronic_eig": [
            4.417396849698134,
            4.543414173020772,
            4.827223347281099
        ]
    },
    "phonon": {
        "lowest_freq": -0.12606327216894875,
        "frequency": [
            -0.12606327216894875,
            -0.06978622312495689,
            -0.020408403247226158,
            1.4804187969327147,
            1.763135866187791,
            1.9445835848028774,
            2.044989384268249,
            2.2225999111847243,
            2.682894045294065,
            3.22181490178565,
            3.310007895660959,
            3.623180537047527,
            3.7728715140144335,
            3.834877191181643,
            4.23512948639818,
            4.297586547709664,
            4.433989386769794,
            5.229918994003092,
            5.35267558520041,
            6.624877354183772,
            6.890814998705527,
            7.3432844602999845,
            8.321213918459748,
            9.098063016374276,
            9.115326316868456,
            9.658413584272063,
            10.340671969540418,
            11.425756505061486,
            11.99870672599186,
            13.046185479525167,
            14.23984601459,
            15.01574510729169,
            16.48558099586952,
            16.559532029180513,
            21.98271611790365,
            22.26290444121643,
            22.340568153238554,
            22.852190408861635,
            22.916089694524988,
            23.351985138926302,
            23.703850776617266,
            23.81575076766486
        ]
    },
    "born_effective_charge": {
        "avg_abs_trace": 2.2338171428571427,
        "tensors": [
            [
                [
                    0.58602,
                    -0.19254,
                    0.33808
                ],
                [
                    -0.14772,
                    0.72751,
                    -0.15695
                ],
                [
                    0.42233,
                    -0.22092,
                    0.8913
                ]
            ],
            [
                [
                    0.586,
                    -0.19258,
                    0.3379
                ],
                [
                    -0.14777,
                    0.72738,
                    -0.15724
                ],
                [
                    0.42252,
                    -0.22108,
                    0.89113
                ]
            ],
            [
                [
                    3.86006,
                    -0.59074,
                    0.19825
                ],
                [
                    -0.32279,
                    3.64125,
                    -0.17089
                ],
                [
                    0.11389,
                    0.08467,
                    3.58018
                ]
            ],
            [
                [
                    3.86006,
                    -0.59067,
                    0.19817
                ],
                [
                    -0.32293,
                    3.64135,
                    -0.17089
                ],
                [
                    0.11383,
                    0.08492,
                    3.58027
                ]
            ],
            [
                [
                    3.34546,
                    0.28428,
                    -0.07704
                ],
                [
                    0.1905,
                    3.84008,
                    0.2128
                ],
                [
                    -0.08834,
                    0.10496,
                    2.98322
                ]
            ],
            [
                [
                    3.34549,
                    0.28431,
                    -0.07707
                ],
                [
                    0.19057,
                    3.84005,
                    0.21285
                ],
                [
                    -0.08783,
                    0.10464,
                    2.98335
                ]
            ],
            [
                [
                    -1.91336,
                    -0.4403,
                    -0.13561
                ],
                [
                    -0.63948,
                    -1.81415,
                    0.33081
                ],
                [
                    -0.06687,
                    0.25342,
                    -1.56534
                ]
            ],
            [
                [
                    -1.91338,
                    -0.44064,
                    -0.13553
                ],
                [
                    -0.63963,
                    -1.81457,
                    0.33085
                ],
                [
                    -0.0669,
                    0.25316,
                    -1.56513
                ]
            ],
            [
                [
                    -2.16858,
                    0.79816,
                    -0.76465
                ],
                [
                    0.69147,
                    -2.29109,
                    -0.17877
                ],
                [
                    -0.7186,
                    -0.00035,
                    -1.93865
                ]
            ],
            [
                [
                    -1.50121,
                    -0.48236,
                    -0.34054
                ],
                [
                    -0.45963,
                    -1.91821,
                    -0.15438
                ],
                [
                    -0.4916,
                    -0.12149,
                    -1.83122
                ]
            ],
            [
                [
                    -2.20841,
                    0.62347,
                    0.7817
                ],
                [
                    0.68792,
                    -2.18545,
                    0.11739
                ],
                [
                    0.82904,
                    -0.09995,
                    -2.11954
                ]
            ],
            [
                [
                    -2.20843,
                    0.62356,
                    0.7816
                ],
                [
                    0.68776,
                    -2.18533,
                    0.11745
                ],
                [
                    0.82904,
                    -0.09998,
                    -2.11977
                ]
            ],
            [
                [
                    -2.16846,
                    0.79825,
                    -0.76477
                ],
                [
                    0.69134,
                    -2.29096,
                    -0.17892
                ],
                [
                    -0.71883,
                    -0.00027,
                    -1.93866
                ]
            ],
            [
                [
                    -1.50127,
                    -0.48219,
                    -0.3405
                ],
                [
                    -0.45961,
                    -1.91786,
                    -0.1541
                ],
                [
                    -0.49166,
                    -0.12173,
                    -1.83113
                ]
            ]
        ]
    },
    "band_gap": 2.1347,
    "is_direct": false,
    "formula": "CuAsPbO4"
}