{
    "mp_id": "mp-510273",
    "nelements": 3,
    "nsites": 8,
    "elements": [
        "Cs",
        "O",
        "Sb"
    ],
    "structure": {
        "@module": "pymatgen.core.structure",
        "@class": "Structure",
        "charge": null,
        "lattice": {
            "matrix": [
                [
                    4.04133204,
                    -4.90534586,
                    0.00016775
                ],
                [
                    4.04133204,
                    4.90534586,
                    0.00016775
                ],
                [
                    -2.98102205,
                    0.0,
                    4.72347883
                ]
            ],
            "a": 6.355689002137358,
            "b": 6.355689002137358,
            "c": 5.585494133919073,
            "alpha": 109.83675712058084,
            "beta": 109.83675712058084,
            "gamma": 101.03231853049449,
            "volume": 187.28263589765146
        },
        "sites": [
            {
                "species": [
                    {
                        "element": "Cs",
                        "occu": 1
                    }
                ],
                "abc": [
                    0.64867899,
                    0.35132101,
                    0.25
                ],
                "xyz": [
                    3.2960765275000004,
                    -1.4586437361309623,
                    1.1810374575
                ],
                "label": "Cs",
                "properties": {}
            },
            {
                "species": [
                    {
                        "element": "Cs",
                        "occu": 1
                    }
                ],
                "abc": [
                    0.35132101,
                    0.64867899,
                    0.75
                ],
                "xyz": [
                    1.8055655025000004,
                    1.4586437361309623,
                    3.5427768725
                ],
                "label": "Cs",
                "properties": {}
            },
            {
                "species": [
                    {
                        "element": "Sb",
                        "occu": 1
                    }
                ],
                "abc": [
                    0.91815244,
                    0.08184756,
                    0.75
                ],
                "xyz": [
                    1.8055655025000004,
                    -4.102364680805796,
                    3.5427768725
                ],
                "label": "Sb",
                "properties": {}
            },
            {
                "species": [
                    {
                        "element": "Sb",
                        "occu": 1
                    }
                ],
                "abc": [
                    0.08184756,
                    0.91815244,
                    0.25
                ],
                "xyz": [
                    3.2960765275000004,
                    4.102364680805796,
                    1.1810374575
                ],
                "label": "Sb",
                "properties": {}
            },
            {
                "species": [
                    {
                        "element": "O",
                        "occu": 1
                    }
                ],
                "abc": [
                    0.13083806,
                    0.21733923,
                    0.20312507
                ],
                "xyz": [
                    0.8015797250995782,
                    0.4243181561446562,
                    0.9595153747276656
                ],
                "label": "O",
                "properties": {}
            },
            {
                "species": [
                    {
                        "element": "O",
                        "occu": 1
                    }
                ],
                "abc": [
                    0.86916194,
                    0.78266077,
                    0.79687493
                ],
                "xyz": [
                    4.300062304900422,
                    -0.42431815614465584,
                    3.7642989552723343
                ],
                "label": "O",
                "properties": {}
            },
            {
                "species": [
                    {
                        "element": "O",
                        "occu": 1
                    }
                ],
                "abc": [
                    0.78266077,
                    0.86916194,
                    0.29687493
                ],
                "xyz": [
                    5.790573329900422,
                    0.42431815614465584,
                    1.4025595402723345
                ],
                "label": "O",
                "properties": {}
            },
            {
                "species": [
                    {
                        "element": "O",
                        "occu": 1
                    }
                ],
                "abc": [
                    0.21733923,
                    0.13083806,
                    0.70312507
                ],
                "xyz": [
                    -0.688931299900422,
                    -0.4243181561446562,
                    3.321254789727666
                ],
                "label": "O",
                "properties": {}
            }
        ]
    },
    "spacegroup": {
        "source": "spglib",
        "symbol": "C2/c",
        "number": 15,
        "point_group": "2/m",
        "crystal_system": "monoclinic",
        "hall": "-C 2yc"
    },
    "dielectric": {
        "epsilon_ionic": [
            [
                4.73000926,
                0.0,
                -2.08195981
            ],
            [
                0.0,
                4.23573135,
                -3e-08
            ],
            [
                -2.08195981,
                -3e-08,
                8.99726933
            ]
        ],
        "epsilon_ionic_avg": 5.987669980000002,
        "epsilon_ionic_eig": [
            9.84473536468802,
            3.8825432253119847,
            4.23573135
        ],
        "epsilon_electronic": [
            [
                3.54825723,
                0.0,
                -0.40100915
            ],
            [
                0.0,
                3.39650899,
                0.0
            ],
            [
                -0.40100777,
                0.0,
                4.1701558
            ]
        ],
        "epsilon_electronic_avg": 3.704974006666666,
        "epsilon_electronic_eig": [
            3.351764653469926,
            4.366648376530073,
            3.39650899
        ]
    },
    "phonon": {
        "lowest_freq": -0.1278346976196844,
        "frequency": [
            -0.1278346976196844,
            -0.07387510632250373,
            -0.03245851394719853,
            1.1228855073330224,
            1.753457140261846,
            1.8480402695154556,
            1.9846015581163006,
            2.027276862617128,
            2.479292003321686,
            2.683121852322718,
            3.8228966000757376,
            4.698347926639749,
            4.87272294491906,
            6.37130271773842,
            6.476354340339026,
            8.70493028667793,
            9.054803821930296,
            11.96818948428955,
            12.394021583604944,
            12.460517852481212,
            15.87076295576281,
            16.932602096324203,
            17.838397726049347,
            18.28226601628407
        ]
    },
    "born_effective_charge": {
        "avg_abs_trace": 2.0016420833333335,
        "tensors": [
            [
                [
                    1.39994,
                    -9e-05,
                    0.27917
                ],
                [
                    -0.0,
                    1.33515,
                    0.0
                ],
                [
                    0.28328,
                    0.00011,
                    1.40565
                ]
            ],
            [
                [
                    1.39994,
                    9e-05,
                    0.27917
                ],
                [
                    -0.0,
                    1.33543,
                    0.0
                ],
                [
                    0.28328,
                    -0.00011,
                    1.40565
                ]
            ],
            [
                [
                    2.15718,
                    -0.00034,
                    -1.20245
                ],
                [
                    0.0,
                    1.65949,
                    0.0
                ],
                [
                    -1.17517,
                    -0.0002,
                    4.05244
                ]
            ],
            [
                [
                    2.15718,
                    0.00034,
                    -1.20245
                ],
                [
                    -0.0,
                    1.6592,
                    0.0
                ],
                [
                    -1.17517,
                    0.0002,
                    4.05244
                ]
            ],
            [
                [
                    -1.77838,
                    -0.83899,
                    0.46163
                ],
                [
                    -0.29853,
                    -1.49733,
                    0.17295
                ],
                [
                    0.44594,
                    0.81739,
                    -2.72908
                ]
            ],
            [
                [
                    -1.77875,
                    -0.8396,
                    0.46165
                ],
                [
                    -0.29829,
                    -1.49731,
                    0.17316
                ],
                [
                    0.44595,
                    0.81842,
                    -2.72901
                ]
            ],
            [
                [
                    -1.77875,
                    0.8396,
                    0.46165
                ],
                [
                    0.29853,
                    -1.49733,
                    -0.17295
                ],
                [
                    0.44595,
                    -0.81842,
                    -2.72901
                ]
            ],
            [
                [
                    -1.77838,
                    0.83899,
                    0.46163
                ],
                [
                    0.29829,
                    -1.49731,
                    -0.17316
                ],
                [
                    0.44594,
                    -0.81739,
                    -2.72908
                ]
            ]
        ]
    },
    "band_gap": 2.3954000000000004,
    "is_direct": false,
    "formula": "CsSbO2"
}