{
    "mp_id": "mp-5072",
    "nelements": 3,
    "nsites": 5,
    "elements": [
        "Hg",
        "O",
        "Rb"
    ],
    "structure": {
        "@module": "pymatgen.core.structure",
        "@class": "Structure",
        "charge": null,
        "lattice": {
            "matrix": [
                [
                    -2.05932856,
                    2.05932856,
                    7.09906993
                ],
                [
                    2.05932856,
                    -2.05932856,
                    7.09906993
                ],
                [
                    2.05932856,
                    2.05932856,
                    -7.09906993
                ]
            ],
            "a": 7.673230226384033,
            "b": 7.673230226384033,
            "c": 7.673230226384033,
            "alpha": 148.86442078149017,
            "beta": 148.86442078149017,
            "gamma": 44.61091010740614,
            "volume": 120.4239118617469
        },
        "sites": [
            {
                "species": [
                    {
                        "element": "Rb",
                        "occu": 1
                    }
                ],
                "abc": [
                    0.66705594,
                    0.66705594,
                    0.0
                ],
                "xyz": [
                    0.0,
                    0.0,
                    9.470953530563769
                ],
                "label": "Rb",
                "properties": {}
            },
            {
                "species": [
                    {
                        "element": "Rb",
                        "occu": 1
                    }
                ],
                "abc": [
                    0.33294406,
                    0.33294406,
                    0.0
                ],
                "xyz": [
                    0.0,
                    0.0,
                    4.727186329436231
                ],
                "label": "Rb",
                "properties": {}
            },
            {
                "species": [
                    {
                        "element": "Hg",
                        "occu": 1
                    }
                ],
                "abc": [
                    0.0,
                    0.0,
                    0.0
                ],
                "xyz": [
                    0.0,
                    0.0,
                    0.0
                ],
                "label": "Hg",
                "properties": {}
            },
            {
                "species": [
                    {
                        "element": "O",
                        "occu": 1
                    }
                ],
                "abc": [
                    0.86059871,
                    0.86059871,
                    0.0
                ],
                "xyz": [
                    0.0,
                    0.0,
                    12.21890084791558
                ],
                "label": "O",
                "properties": {}
            },
            {
                "species": [
                    {
                        "element": "O",
                        "occu": 1
                    }
                ],
                "abc": [
                    0.13940129,
                    0.13940129,
                    0.0
                ],
                "xyz": [
                    0.0,
                    0.0,
                    1.9792390120844194
                ],
                "label": "O",
                "properties": {}
            }
        ]
    },
    "spacegroup": {
        "source": "spglib",
        "symbol": "I4/mmm",
        "number": 139,
        "point_group": "4/mmm",
        "crystal_system": "tetragonal",
        "hall": "-I 4 2"
    },
    "dielectric": {
        "epsilon_ionic": [
            [
                3.87153376,
                0.0,
                0.0
            ],
            [
                0.0,
                3.8716215,
                0.0
            ],
            [
                0.0,
                0.0,
                3.43039821
            ]
        ],
        "epsilon_ionic_avg": 3.724517823333333,
        "epsilon_ionic_eig": [
            3.87153376,
            3.8716215,
            3.43039821
        ],
        "epsilon_electronic": [
            [
                2.87290751,
                0.0,
                0.0
            ],
            [
                0.0,
                2.87290751,
                0.0
            ],
            [
                0.0,
                0.0,
                3.70102182
            ]
        ],
        "epsilon_electronic_avg": 3.1489456133333333,
        "epsilon_electronic_eig": [
            2.87290751,
            2.87290751,
            3.70102182
        ]
    },
    "phonon": {
        "lowest_freq": -0.010622290318486115,
        "frequency": [
            -0.010622290318486115,
            -0.003639866446803887,
            -0.003639866446803887,
            1.762414925649178,
            1.762414925649178,
            2.1870164068662383,
            2.1870164068662383,
            2.968379691838257,
            3.0825087450175976,
            4.046358566127265,
            4.046358566127265,
            6.2762898596599275,
            6.2762898596599275,
            18.344271713409807,
            18.37739887039395
        ]
    },
    "born_effective_charge": {
        "avg_abs_trace": 1.31369,
        "tensors": [
            [
                [
                    1.22769,
                    -0.0,
                    1e-05
                ],
                [
                    -0.0,
                    1.2277,
                    1e-05
                ],
                [
                    -0.0,
                    -0.0,
                    1.31072
                ]
            ],
            [
                [
                    1.22769,
                    -0.0,
                    -1e-05
                ],
                [
                    -0.0,
                    1.2277,
                    -1e-05
                ],
                [
                    -0.0,
                    -0.0,
                    1.31068
                ]
            ],
            [
                [
                    -0.02997,
                    -0.0,
                    0.0
                ],
                [
                    -0.0,
                    -0.02998,
                    -0.0
                ],
                [
                    -0.0,
                    -0.0,
                    2.38045
                ]
            ],
            [
                [
                    -1.2127,
                    0.0,
                    4e-05
                ],
                [
                    0.0,
                    -1.21271,
                    -0.0
                ],
                [
                    0.0,
                    0.0,
                    -2.5009
                ]
            ],
            [
                [
                    -1.2127,
                    0.0,
                    -4e-05
                ],
                [
                    0.0,
                    -1.21271,
                    0.0
                ],
                [
                    0.0,
                    0.0,
                    -2.50095
                ]
            ]
        ]
    },
    "band_gap": 2.1254999999999997,
    "is_direct": false,
    "formula": "Rb2HgO2"
}