{
    "mp_id": "mp-504849",
    "nelements": 4,
    "nsites": 18,
    "elements": [
        "Cs",
        "Li",
        "O",
        "Si"
    ],
    "structure": {
        "@module": "pymatgen.core.structure",
        "@class": "Structure",
        "charge": null,
        "lattice": {
            "matrix": [
                [
                    5.54386768,
                    0.00067857,
                    -0.00064496
                ],
                [
                    0.28104867,
                    5.72201563,
                    -0.00093916
                ],
                [
                    2.16406638,
                    0.83448121,
                    8.90882761
                ]
            ],
            "a": 5.543867759045054,
            "b": 5.728913693440892,
            "c": 9.205799887657111,
            "alpha": 84.15072289026779,
            "beta": 76.40985581617764,
            "gamma": 87.1810446668071,
            "volume": 282.6171777563401
        },
        "sites": [
            {
                "species": [
                    {
                        "element": "Cs",
                        "occu": 1
                    }
                ],
                "abc": [
                    0.51630368,
                    0.15080944,
                    0.28412805
                ],
                "xyz": [
                    3.5195760377724663,
                    1.1003838399786252,
                    2.5307731872003374
                ],
                "label": "Cs",
                "properties": {}
            },
            {
                "species": [
                    {
                        "element": "Cs",
                        "occu": 1
                    }
                ],
                "abc": [
                    0.48369632,
                    0.84919056,
                    0.71587195
                ],
                "xyz": [
                    4.469406692227534,
                    5.456791570021375,
                    6.376470302799662
                ],
                "label": "Cs",
                "properties": {}
            },
            {
                "species": [
                    {
                        "element": "Cs",
                        "occu": 1
                    }
                ],
                "abc": [
                    0.78930407,
                    0.73227577,
                    0.01641533
                ],
                "xyz": [
                    4.617126318366789,
                    4.204327283914014,
                    0.14504455146612089
                ],
                "label": "Cs",
                "properties": {}
            },
            {
                "species": [
                    {
                        "element": "Cs",
                        "occu": 1
                    }
                ],
                "abc": [
                    0.21069593,
                    0.26772423,
                    0.98358467
                ],
                "xyz": [
                    3.3718564116332113,
                    2.3528481260859855,
                    8.76219893853388
                ],
                "label": "Cs",
                "properties": {}
            },
            {
                "species": [
                    {
                        "element": "Li",
                        "occu": 1
                    }
                ],
                "abc": [
                    0.30282555,
                    0.40979358,
                    0.5805608
                ],
                "xyz": [
                    3.0503688287826662,
                    2.829517837029687,
                    5.171535912218367
                ],
                "label": "Li",
                "properties": {}
            },
            {
                "species": [
                    {
                        "element": "Li",
                        "occu": 1
                    }
                ],
                "abc": [
                    0.69717445,
                    0.59020642,
                    0.4194392
                ],
                "xyz": [
                    4.938613901217334,
                    3.7276575729703127,
                    3.735707577781633
                ],
                "label": "Li",
                "properties": {}
            },
            {
                "species": [
                    {
                        "element": "Li",
                        "occu": 1
                    }
                ],
                "abc": [
                    0.06580812,
                    0.81300147,
                    0.56124654
                ],
                "xyz": [
                    1.8078992595064316,
                    5.120401465776477,
                    4.999242689503329
                ],
                "label": "Li",
                "properties": {}
            },
            {
                "species": [
                    {
                        "element": "Li",
                        "occu": 1
                    }
                ],
                "abc": [
                    0.93419188,
                    0.18699853,
                    0.43875346
                ],
                "xyz": [
                    6.181083470493569,
                    1.4367739442235217,
                    3.9080008004966706
                ],
                "label": "Li",
                "properties": {}
            },
            {
                "species": [
                    {
                        "element": "Si",
                        "occu": 1
                    }
                ],
                "abc": [
                    0.14193644,
                    0.68475212,
                    0.29415292
                ],
                "xyz": [
                    1.6158919596867691,
                    4.163723731732359,
                    2.6198230201307595
                ],
                "label": "Si",
                "properties": {}
            },
            {
                "species": [
                    {
                        "element": "Si",
                        "occu": 1
                    }
                ],
                "abc": [
                    0.85806356,
                    0.31524788,
                    0.70584708
                ],
                "xyz": [
                    6.3730907703132305,
                    2.39345167826764,
                    6.2874204698692395
                ],
                "label": "Si",
                "properties": {}
            },
            {
                "species": [
                    {
                        "element": "O",
                        "occu": 1
                    }
                ],
                "abc": [
                    0.35171466,
                    0.64168851,
                    0.39973987
                ],
                "xyz": [
                    2.9952688518585413,
                    4.00556575723109,
                    3.560384100605645
                ],
                "label": "O",
                "properties": {}
            },
            {
                "species": [
                    {
                        "element": "O",
                        "occu": 1
                    }
                ],
                "abc": [
                    0.64828534,
                    0.35831149,
                    0.60026013
                ],
                "xyz": [
                    4.99371387814146,
                    2.5516096527689096,
                    5.346859389394354
                ],
                "label": "O",
                "properties": {}
            },
            {
                "species": [
                    {
                        "element": "O",
                        "occu": 1
                    }
                ],
                "abc": [
                    0.99565354,
                    0.44128876,
                    0.28948434
                ],
                "xyz": [
                    6.270258427698025,
                    2.767306045005208,
                    2.577909483395627
                ],
                "label": "O",
                "properties": {}
            },
            {
                "species": [
                    {
                        "element": "O",
                        "occu": 1
                    }
                ],
                "abc": [
                    0.00434646,
                    0.55871124,
                    0.71051566
                ],
                "xyz": [
                    1.7187243023019745,
                    3.789869364994792,
                    6.329334006604372
                ],
                "label": "O",
                "properties": {}
            },
            {
                "species": [
                    {
                        "element": "O",
                        "occu": 1
                    }
                ],
                "abc": [
                    0.92156946,
                    0.86149672,
                    0.38819079
                ],
                "xyz": [
                    6.191252289199055,
                    5.254060966572261,
                    3.456921369201235
                ],
                "label": "O",
                "properties": {}
            },
            {
                "species": [
                    {
                        "element": "O",
                        "occu": 1
                    }
                ],
                "abc": [
                    0.07843054,
                    0.13850328,
                    0.61180921
                ],
                "xyz": [
                    1.7977304408009445,
                    1.3031144434277384,
                    5.450322120798765
                ],
                "label": "O",
                "properties": {}
            },
            {
                "species": [
                    {
                        "element": "O",
                        "occu": 1
                    }
                ],
                "abc": [
                    0.26645472,
                    0.79697178,
                    0.12448955
                ],
                "xyz": [
                    1.970581219004311,
                    4.664349980324627,
                    1.1081356035433594
                ],
                "label": "O",
                "properties": {}
            },
            {
                "species": [
                    {
                        "element": "O",
                        "occu": 1
                    }
                ],
                "abc": [
                    0.73354528,
                    0.20302822,
                    0.87551045
                ],
                "xyz": [
                    6.018401510995689,
                    1.8928254296753728,
                    7.799107886456641
                ],
                "label": "O",
                "properties": {}
            }
        ]
    },
    "spacegroup": {
        "source": "spglib",
        "symbol": "P-1",
        "number": 2,
        "point_group": "-1",
        "crystal_system": "triclinic",
        "hall": "-P 1"
    },
    "dielectric": {
        "epsilon_ionic": [
            [
                5.69147962,
                -0.26006249,
                -0.744057
            ],
            [
                -0.26006249,
                5.60765011,
                0.8330117
            ],
            [
                -0.744057,
                0.8330117,
                7.44094802
            ]
        ],
        "epsilon_ionic_avg": 6.24669258333333,
        "epsilon_ionic_eig": [
            8.028486944563124,
            5.430023656778451,
            5.281567148658415
        ],
        "epsilon_electronic": [
            [
                3.1370699,
                -0.01975994,
                0.02406351
            ],
            [
                -0.01976377,
                3.10572815,
                0.05186897
            ],
            [
                0.02406254,
                0.05186669,
                3.05492093
            ]
        ],
        "epsilon_electronic_avg": 3.09923966,
        "epsilon_electronic_eig": [
            3.0147668108733137,
            3.146650433226592,
            3.1363017359000938
        ]
    },
    "phonon": {
        "lowest_freq": -0.11275905211575643,
        "frequency": [
            -0.11275905211575643,
            -0.09769274286261659,
            -0.052575633694835505,
            1.502214710700713,
            1.5935935200944353,
            1.6630103177099094,
            1.731132941973047,
            2.0655059261689273,
            2.2239145394240536,
            2.3451792446390987,
            2.6073938615353702,
            2.957560889442948,
            3.3127047502157745,
            3.384792361679742,
            3.4429299895727286,
            3.8232848022226626,
            4.211981649648318,
            5.324592249286145,
            5.350526397994021,
            5.543447493914088,
            5.913326311790175,
            5.941300215746947,
            6.2506626127666935,
            7.16555020906347,
            9.216788438951786,
            9.42088656390173,
            9.970999186758652,
            10.566396385019383,
            10.621144872372232,
            10.943062872342688,
            11.299714165299662,
            11.779684903197992,
            11.818623638171736,
            12.432741885239656,
            12.70635016994634,
            13.023225175904166,
            13.385027748651112,
            13.644929381914682,
            13.94210255252346,
            14.471973005832469,
            15.182163920678637,
            15.293527344853194,
            15.732670694933619,
            16.82571986787478,
            16.972466664785507,
            18.096070215928414,
            23.05890720017581,
            23.165489308011377,
            23.37061035507169,
            23.97732348290717,
            25.373297913159004,
            25.450015364289623,
            27.074590385448804,
            27.956664571341832
        ]
    },
    "born_effective_charge": {
        "avg_abs_trace": 1.659610925925926,
        "tensors": [
            [
                [
                    1.45303,
                    0.0157,
                    0.04246
                ],
                [
                    0.00073,
                    1.57728,
                    0.03396
                ],
                [
                    0.0355,
                    0.05105,
                    1.14635
                ]
            ],
            [
                [
                    1.453,
                    0.01569,
                    0.04241
                ],
                [
                    0.00073,
                    1.5773,
                    0.03397
                ],
                [
                    0.03548,
                    0.05104,
                    1.14631
                ]
            ],
            [
                [
                    1.43428,
                    -0.13022,
                    -0.01094
                ],
                [
                    -0.13208,
                    1.27171,
                    -0.00824
                ],
                [
                    -0.01457,
                    -0.04002,
                    1.32195
                ]
            ],
            [
                [
                    1.43426,
                    -0.13018,
                    -0.01091
                ],
                [
                    -0.13207,
                    1.2717,
                    -0.00822
                ],
                [
                    -0.01463,
                    -0.03996,
                    1.32199
                ]
            ],
            [
                [
                    1.15173,
                    -0.01414,
                    -0.03026
                ],
                [
                    0.00051,
                    0.90713,
                    -0.06136
                ],
                [
                    -0.03935,
                    -0.08029,
                    1.00538
                ]
            ],
            [
                [
                    1.15173,
                    -0.01414,
                    -0.03026
                ],
                [
                    0.00051,
                    0.90713,
                    -0.06136
                ],
                [
                    -0.03935,
                    -0.08028,
                    1.00538
                ]
            ],
            [
                [
                    0.89017,
                    -0.0084,
                    0.00585
                ],
                [
                    0.00826,
                    1.04323,
                    0.01381
                ],
                [
                    0.01485,
                    0.07093,
                    1.09636
                ]
            ],
            [
                [
                    0.89017,
                    -0.0084,
                    0.00585
                ],
                [
                    0.00826,
                    1.04323,
                    0.01381
                ],
                [
                    0.01484,
                    0.07093,
                    1.09634
                ]
            ],
            [
                [
                    2.6759,
                    0.05383,
                    -0.09797
                ],
                [
                    0.15472,
                    2.60356,
                    -0.03579
                ],
                [
                    0.00963,
                    0.04205,
                    2.82669
                ]
            ],
            [
                [
                    2.67591,
                    0.05385,
                    -0.09799
                ],
                [
                    0.15472,
                    2.60358,
                    -0.03578
                ],
                [
                    0.00968,
                    0.04207,
                    2.8267
                ]
            ],
            [
                [
                    -2.14072,
                    0.09675,
                    -0.41687
                ],
                [
                    0.1093,
                    -1.67178,
                    0.09794
                ],
                [
                    -0.38138,
                    0.05812,
                    -1.84698
                ]
            ],
            [
                [
                    -2.14064,
                    0.09675,
                    -0.41678
                ],
                [
                    0.1093,
                    -1.67182,
                    0.09797
                ],
                [
                    -0.38153,
                    0.05816,
                    -1.84708
                ]
            ],
            [
                [
                    -1.7823,
                    -0.30454,
                    0.06136
                ],
                [
                    -0.40524,
                    -2.10584,
                    0.02472
                ],
                [
                    -0.00306,
                    -0.04679,
                    -1.66552
                ]
            ],
            [
                [
                    -1.78238,
                    -0.30471,
                    0.06132
                ],
                [
                    -0.40533,
                    -2.10599,
                    0.02471
                ],
                [
                    -0.00297,
                    -0.04657,
                    -1.6655
                ]
            ],
            [
                [
                    -1.87321,
                    0.39709,
                    0.27459
                ],
                [
                    0.36789,
                    -1.92082,
                    -0.30188
                ],
                [
                    0.22991,
                    -0.33161,
                    -1.71679
                ]
            ],
            [
                [
                    -1.87308,
                    0.39691,
                    0.27451
                ],
                [
                    0.36795,
                    -1.9209,
                    -0.30194
                ],
                [
                    0.22969,
                    -0.33145,
                    -1.71669
                ]
            ],
            [
                [
                    -1.8089,
                    -0.1059,
                    0.17178
                ],
                [
                    -0.10408,
                    -1.70434,
                    0.2368
                ],
                [
                    0.1486,
                    0.2763,
                    -2.1674
                ]
            ],
            [
                [
                    -1.80896,
                    -0.10593,
                    0.17186
                ],
                [
                    -0.10412,
                    -1.70436,
                    0.23685
                ],
                [
                    0.14865,
                    0.2763,
                    -2.16751
                ]
            ]
        ]
    },
    "band_gap": 4.0481,
    "is_direct": false,
    "formula": "Cs2Li2SiO4"
}