{
    "mp_id": "mp-5146",
    "nelements": 3,
    "nsites": 14,
    "elements": [
        "O",
        "Rh",
        "Zn"
    ],
    "structure": {
        "@module": "pymatgen.core.structure",
        "@class": "Structure",
        "charge": null,
        "lattice": {
            "matrix": [
                [
                    0.0,
                    4.21270128,
                    4.21270128
                ],
                [
                    4.21270128,
                    0.0,
                    4.21270128
                ],
                [
                    4.21270128,
                    4.21270128,
                    0.0
                ]
            ],
            "a": 5.957659284402498,
            "b": 5.957659284402498,
            "c": 5.957659284402498,
            "alpha": 60.00000000000001,
            "beta": 60.00000000000001,
            "gamma": 60.00000000000001,
            "volume": 149.52437290054854
        },
        "sites": [
            {
                "species": [
                    {
                        "element": "Zn",
                        "occu": 1
                    }
                ],
                "abc": [
                    0.0,
                    0.0,
                    0.0
                ],
                "xyz": [
                    0.0,
                    0.0,
                    0.0
                ],
                "label": "Zn",
                "properties": {}
            },
            {
                "species": [
                    {
                        "element": "Zn",
                        "occu": 1
                    }
                ],
                "abc": [
                    0.25,
                    0.25,
                    0.25
                ],
                "xyz": [
                    2.10635064,
                    2.10635064,
                    2.10635064
                ],
                "label": "Zn",
                "properties": {}
            },
            {
                "species": [
                    {
                        "element": "Rh",
                        "occu": 1
                    }
                ],
                "abc": [
                    0.125,
                    0.625,
                    0.625
                ],
                "xyz": [
                    5.2658766,
                    3.1595259600000003,
                    3.1595259600000003
                ],
                "label": "Rh",
                "properties": {}
            },
            {
                "species": [
                    {
                        "element": "Rh",
                        "occu": 1
                    }
                ],
                "abc": [
                    0.625,
                    0.625,
                    0.625
                ],
                "xyz": [
                    5.2658766,
                    5.2658766,
                    5.2658766
                ],
                "label": "Rh",
                "properties": {}
            },
            {
                "species": [
                    {
                        "element": "Rh",
                        "occu": 1
                    }
                ],
                "abc": [
                    0.625,
                    0.125,
                    0.625
                ],
                "xyz": [
                    3.1595259600000003,
                    5.2658766,
                    3.1595259600000003
                ],
                "label": "Rh",
                "properties": {}
            },
            {
                "species": [
                    {
                        "element": "Rh",
                        "occu": 1
                    }
                ],
                "abc": [
                    0.625,
                    0.625,
                    0.125
                ],
                "xyz": [
                    3.1595259600000003,
                    3.1595259600000003,
                    5.2658766
                ],
                "label": "Rh",
                "properties": {}
            },
            {
                "species": [
                    {
                        "element": "O",
                        "occu": 1
                    }
                ],
                "abc": [
                    0.866149,
                    0.866149,
                    0.866149
                ],
                "xyz": [
                    7.2976540019414395,
                    7.2976540019414395,
                    7.2976540019414395
                ],
                "label": "O",
                "properties": {}
            },
            {
                "species": [
                    {
                        "element": "O",
                        "occu": 1
                    }
                ],
                "abc": [
                    0.84844601,
                    0.383851,
                    0.383851
                ],
                "xyz": [
                    3.2340991980585603,
                    5.1912991913671735,
                    5.1912991913671735
                ],
                "label": "O",
                "properties": {}
            },
            {
                "species": [
                    {
                        "element": "O",
                        "occu": 1
                    }
                ],
                "abc": [
                    0.383851,
                    0.383851,
                    0.84844601
                ],
                "xyz": [
                    5.1912991913671735,
                    5.1912991913671735,
                    3.2340991980585603
                ],
                "label": "O",
                "properties": {}
            },
            {
                "species": [
                    {
                        "element": "O",
                        "occu": 1
                    }
                ],
                "abc": [
                    0.383851,
                    0.84844601,
                    0.383851
                ],
                "xyz": [
                    5.1912991913671735,
                    3.2340991980585603,
                    5.1912991913671735
                ],
                "label": "O",
                "properties": {}
            },
            {
                "species": [
                    {
                        "element": "O",
                        "occu": 1
                    }
                ],
                "abc": [
                    0.866149,
                    0.866149,
                    0.40155399
                ],
                "xyz": [
                    5.340454008632827,
                    5.340454008632827,
                    7.2976540019414395
                ],
                "label": "O",
                "properties": {}
            },
            {
                "species": [
                    {
                        "element": "O",
                        "occu": 1
                    }
                ],
                "abc": [
                    0.866149,
                    0.40155399,
                    0.866149
                ],
                "xyz": [
                    5.340454008632827,
                    7.2976540019414395,
                    5.340454008632827
                ],
                "label": "O",
                "properties": {}
            },
            {
                "species": [
                    {
                        "element": "O",
                        "occu": 1
                    }
                ],
                "abc": [
                    0.383851,
                    0.383851,
                    0.383851
                ],
                "xyz": [
                    3.2340991980585603,
                    3.2340991980585603,
                    3.2340991980585603
                ],
                "label": "O",
                "properties": {}
            },
            {
                "species": [
                    {
                        "element": "O",
                        "occu": 1
                    }
                ],
                "abc": [
                    0.40155399,
                    0.866149,
                    0.866149
                ],
                "xyz": [
                    7.2976540019414395,
                    5.340454008632827,
                    5.340454008632827
                ],
                "label": "O",
                "properties": {}
            }
        ]
    },
    "spacegroup": {
        "source": "spglib",
        "symbol": "Fd-3m",
        "number": 227,
        "point_group": "m-3m",
        "crystal_system": "cubic",
        "hall": "F 4d 2 3 -1d"
    },
    "dielectric": {
        "epsilon_ionic": [
            [
                3.30230188,
                -1e-08,
                -1e-08
            ],
            [
                -1e-08,
                3.30226555,
                -1e-08
            ],
            [
                -1e-08,
                -1e-08,
                3.30234351
            ]
        ],
        "epsilon_ionic_avg": 3.3023036466666675,
        "epsilon_ionic_eig": [
            3.3023018800003525,
            3.3022655499959663,
            3.302343510003684
        ],
        "epsilon_electronic": [
            [
                6.63976287,
                0.0,
                -0.0
            ],
            [
                0.0,
                6.63976287,
                0.0
            ],
            [
                0.0,
                -0.0,
                6.63976287
            ]
        ],
        "epsilon_electronic_avg": 6.639762870000001,
        "epsilon_electronic_eig": [
            6.63976287,
            6.63976287,
            6.63976287
        ]
    },
    "phonon": {
        "lowest_freq": -0.03080195434124893,
        "frequency": [
            -0.03080195434124893,
            -0.03080195434124893,
            -0.030801954301576104,
            5.167433307907681,
            5.167433307907681,
            5.167433307907681,
            5.39022034084799,
            5.39022034084799,
            5.39022034084799,
            5.558673508984149,
            5.558673508984149,
            5.558673508984149,
            8.721751218921085,
            8.721751218921085,
            9.022382830499152,
            9.022382830499152,
            9.022382830499152,
            11.537805851763254,
            14.562817992473715,
            14.562817992473715,
            14.562817992473715,
            14.596067144092526,
            14.596067144092526,
            14.902522092411122,
            14.902522092411122,
            14.902522092411122,
            14.958379275861379,
            14.958379275861379,
            15.22552520548872,
            15.22552520548872,
            15.22552520548872,
            16.622135975334213,
            16.622135975334213,
            16.622135975334213,
            17.135566548168164,
            17.135566548168164,
            17.135566548168164,
            17.550658517019674,
            17.550658517019674,
            17.550658517019674,
            18.40984692830011,
            18.763399066660547
        ]
    },
    "born_effective_charge": {
        "avg_abs_trace": 2.1643166666666667,
        "tensors": [
            [
                [
                    2.33053,
                    -0.0,
                    -0.0
                ],
                [
                    -0.0,
                    2.33056,
                    -0.0
                ],
                [
                    0.0,
                    0.0,
                    2.3305
                ]
            ],
            [
                [
                    2.33053,
                    0.0,
                    -0.0
                ],
                [
                    -0.0,
                    2.33056,
                    -0.0
                ],
                [
                    0.0,
                    0.0,
                    2.3305
                ]
            ],
            [
                [
                    2.62229,
                    -0.5178,
                    -0.5178
                ],
                [
                    -0.51782,
                    2.62226,
                    0.51782
                ],
                [
                    -0.51771,
                    0.51771,
                    2.62231
                ]
            ],
            [
                [
                    2.62229,
                    0.5178,
                    0.5178
                ],
                [
                    0.51782,
                    2.62226,
                    0.51782
                ],
                [
                    0.51771,
                    0.51771,
                    2.62231
                ]
            ],
            [
                [
                    2.62229,
                    -0.5178,
                    0.5178
                ],
                [
                    -0.51782,
                    2.62226,
                    -0.51782
                ],
                [
                    0.51771,
                    -0.51771,
                    2.62231
                ]
            ],
            [
                [
                    2.62229,
                    0.5178,
                    -0.5178
                ],
                [
                    0.51782,
                    2.62226,
                    -0.51782
                ],
                [
                    -0.51771,
                    -0.51771,
                    2.62231
                ]
            ],
            [
                [
                    -1.89392,
                    0.00022,
                    0.00022
                ],
                [
                    0.0002,
                    -1.89385,
                    0.0002
                ],
                [
                    0.00033,
                    0.00033,
                    -1.89393
                ]
            ],
            [
                [
                    -1.89364,
                    -0.00015,
                    -0.00015
                ],
                [
                    -0.0002,
                    -1.89385,
                    0.0002
                ],
                [
                    -0.00033,
                    0.00033,
                    -1.89393
                ]
            ],
            [
                [
                    -1.89392,
                    0.00022,
                    -0.00022
                ],
                [
                    0.0002,
                    -1.89385,
                    -0.0002
                ],
                [
                    -0.00021,
                    -0.00021,
                    -1.89364
                ]
            ],
            [
                [
                    -1.89392,
                    -0.00022,
                    0.00022
                ],
                [
                    -8e-05,
                    -1.89369,
                    -8e-05
                ],
                [
                    0.00033,
                    -0.00033,
                    -1.89393
                ]
            ],
            [
                [
                    -1.89364,
                    0.00015,
                    -0.00015
                ],
                [
                    8e-05,
                    -1.89369,
                    -8e-05
                ],
                [
                    -0.00033,
                    -0.00033,
                    -1.89393
                ]
            ],
            [
                [
                    -1.89364,
                    -0.00015,
                    0.00015
                ],
                [
                    -0.0002,
                    -1.89385,
                    -0.0002
                ],
                [
                    0.00021,
                    -0.00021,
                    -1.89364
                ]
            ],
            [
                [
                    -1.89364,
                    0.00015,
                    0.00015
                ],
                [
                    8e-05,
                    -1.89369,
                    8e-05
                ],
                [
                    0.00021,
                    0.00021,
                    -1.89364
                ]
            ],
            [
                [
                    -1.89392,
                    -0.00022,
                    -0.00022
                ],
                [
                    -8e-05,
                    -1.89369,
                    8e-05
                ],
                [
                    -0.00021,
                    0.00021,
                    -1.89364
                ]
            ]
        ]
    },
    "band_gap": 1.8140999999999998,
    "is_direct": false,
    "formula": "Zn(RhO2)2"
}