{
    "mp_id": "mp-557070",
    "nelements": 4,
    "nsites": 20,
    "elements": [
        "As",
        "Bi",
        "Ca",
        "O"
    ],
    "structure": {
        "@module": "pymatgen.core.structure",
        "@class": "Structure",
        "charge": null,
        "lattice": {
            "matrix": [
                [
                    4.43312153,
                    -5.88852081,
                    0.0
                ],
                [
                    4.43312153,
                    5.88852081,
                    0.0
                ],
                [
                    0.0,
                    0.0,
                    5.54912282
                ]
            ],
            "a": 7.370701718937798,
            "b": 7.370701718937798,
            "c": 5.54912282,
            "alpha": 90.0,
            "beta": 90.0,
            "gamma": 106.05211341713822,
            "volume": 289.71446830715746
        },
        "sites": [
            {
                "species": [
                    {
                        "element": "Ca",
                        "occu": 1
                    }
                ],
                "abc": [
                    0.6977307,
                    0.90748829,
                    0.76250288
                ],
                "xyz": [
                    7.116130864933855,
                    1.2351619337704483,
                    4.2312221317237215
                ],
                "label": "Ca",
                "properties": {}
            },
            {
                "species": [
                    {
                        "element": "Ca",
                        "occu": 1
                    }
                ],
                "abc": [
                    0.09251171,
                    0.3022693,
                    0.76250288
                ],
                "xyz": [
                    1.7501121950661453,
                    1.235161933770448,
                    4.2312221317237215
                ],
                "label": "Ca",
                "properties": {}
            },
            {
                "species": [
                    {
                        "element": "Ca",
                        "occu": 1
                    }
                ],
                "abc": [
                    0.90748829,
                    0.6977307,
                    0.26250288
                ],
                "xyz": [
                    7.116130864933855,
                    -1.2351619337704483,
                    1.4566607217237215
                ],
                "label": "Ca",
                "properties": {}
            },
            {
                "species": [
                    {
                        "element": "Ca",
                        "occu": 1
                    }
                ],
                "abc": [
                    0.3022693,
                    0.09251171,
                    0.26250288
                ],
                "xyz": [
                    1.7501121950661453,
                    -1.235161933770448,
                    1.4566607217237215
                ],
                "label": "Ca",
                "properties": {}
            },
            {
                "species": [
                    {
                        "element": "Bi",
                        "occu": 1
                    }
                ],
                "abc": [
                    0.40775734,
                    0.59224266,
                    0.24832938
                ],
                "xyz": [
                    4.43312153,
                    1.086345645959509,
                    1.3780102294344516
                ],
                "label": "Bi",
                "properties": {}
            },
            {
                "species": [
                    {
                        "element": "Bi",
                        "occu": 1
                    }
                ],
                "abc": [
                    0.59224266,
                    0.40775734,
                    0.74832938
                ],
                "xyz": [
                    4.43312153,
                    -1.086345645959509,
                    4.152571639434452
                ],
                "label": "Bi",
                "properties": {}
            },
            {
                "species": [
                    {
                        "element": "As",
                        "occu": 1
                    }
                ],
                "abc": [
                    0.18290687,
                    0.81709313,
                    0.80548898
                ],
                "xyz": [
                    4.433121529999999,
                    3.7344189894260706,
                    4.469757280176523
                ],
                "label": "As",
                "properties": {}
            },
            {
                "species": [
                    {
                        "element": "As",
                        "occu": 1
                    }
                ],
                "abc": [
                    0.81709313,
                    0.18290687,
                    0.30548898
                ],
                "xyz": [
                    4.433121529999999,
                    -3.7344189894260706,
                    1.6951958701765237
                ],
                "label": "As",
                "properties": {}
            },
            {
                "species": [
                    {
                        "element": "O",
                        "occu": 1
                    }
                ],
                "abc": [
                    0.65012341,
                    0.6583642,
                    0.50922847
                ],
                "xyz": [
                    5.800684595629243,
                    0.04852606340583998,
                    2.825771323470686
                ],
                "label": "O",
                "properties": {}
            },
            {
                "species": [
                    {
                        "element": "O",
                        "occu": 1
                    }
                ],
                "abc": [
                    0.4038872,
                    0.91208414,
                    0.92480888
                ],
                "xyz": [
                    5.8338608802169505,
                    2.992528256768322,
                    5.131878060146642
                ],
                "label": "O",
                "properties": {}
            },
            {
                "species": [
                    {
                        "element": "O",
                        "occu": 1
                    }
                ],
                "abc": [
                    0.91208414,
                    0.4038872,
                    0.42480888
                ],
                "xyz": [
                    5.8338608802169505,
                    -2.992528256768322,
                    2.357316650146642
                ],
                "label": "O",
                "properties": {}
            },
            {
                "species": [
                    {
                        "element": "O",
                        "occu": 1
                    }
                ],
                "abc": [
                    0.3416358,
                    0.34987659,
                    0.50922847
                ],
                "xyz": [
                    3.0655584643707567,
                    0.04852606340583998,
                    2.825771323470686
                ],
                "label": "O",
                "properties": {}
            },
            {
                "species": [
                    {
                        "element": "O",
                        "occu": 1
                    }
                ],
                "abc": [
                    0.81247085,
                    0.18752915,
                    0.99728505
                ],
                "xyz": [
                    4.43312153,
                    -3.679982205486777,
                    5.534057228999841
                ],
                "label": "O",
                "properties": {}
            },
            {
                "species": [
                    {
                        "element": "O",
                        "occu": 1
                    }
                ],
                "abc": [
                    0.34987659,
                    0.3416358,
                    0.00922847
                ],
                "xyz": [
                    3.0655584643707567,
                    -0.04852606340583998,
                    0.0512099134706854
                ],
                "label": "O",
                "properties": {}
            },
            {
                "species": [
                    {
                        "element": "O",
                        "occu": 1
                    }
                ],
                "abc": [
                    0.18752915,
                    0.81247085,
                    0.49728505
                ],
                "xyz": [
                    4.43312153,
                    3.679982205486777,
                    2.759495818999841
                ],
                "label": "O",
                "properties": {}
            },
            {
                "species": [
                    {
                        "element": "O",
                        "occu": 1
                    }
                ],
                "abc": [
                    0.6583642,
                    0.65012341,
                    0.00922847
                ],
                "xyz": [
                    5.800684595629243,
                    -0.04852606340583998,
                    0.0512099134706854
                ],
                "label": "O",
                "properties": {}
            },
            {
                "species": [
                    {
                        "element": "O",
                        "occu": 1
                    }
                ],
                "abc": [
                    0.95163435,
                    0.04836565,
                    0.42981415
                ],
                "xyz": [
                    4.43312153,
                    -5.3189165369716465,
                    2.385091508123903
                ],
                "label": "O",
                "properties": {}
            },
            {
                "species": [
                    {
                        "element": "O",
                        "occu": 1
                    }
                ],
                "abc": [
                    0.5961128,
                    0.08791586,
                    0.42480888
                ],
                "xyz": [
                    3.03238217978305,
                    -2.9925282567683213,
                    2.357316650146642
                ],
                "label": "O",
                "properties": {}
            },
            {
                "species": [
                    {
                        "element": "O",
                        "occu": 1
                    }
                ],
                "abc": [
                    0.04836565,
                    0.95163435,
                    0.92981415
                ],
                "xyz": [
                    4.43312153,
                    5.3189165369716465,
                    5.1596529181239035
                ],
                "label": "O",
                "properties": {}
            },
            {
                "species": [
                    {
                        "element": "O",
                        "occu": 1
                    }
                ],
                "abc": [
                    0.08791586,
                    0.5961128,
                    0.92480888
                ],
                "xyz": [
                    3.03238217978305,
                    2.9925282567683213,
                    5.131878060146642
                ],
                "label": "O",
                "properties": {}
            }
        ]
    },
    "spacegroup": {
        "source": "spglib",
        "symbol": "Cmc2_1",
        "number": 36,
        "point_group": "mm2",
        "crystal_system": "orthorhombic",
        "hall": "C 2c -2"
    },
    "dielectric": {
        "epsilon_ionic": [
            [
                7.06527697,
                0.0,
                1.135e-05
            ],
            [
                0.0,
                7.84150539,
                3.06e-05
            ],
            [
                1.135e-05,
                3.06e-05,
                11.38249314
            ]
        ],
        "epsilon_ionic_avg": 8.763091833333334,
        "epsilon_ionic_eig": [
            7.06527696997016,
            11.382493140294278,
            7.841505389735565
        ],
        "epsilon_electronic": [
            [
                3.66410993,
                0.0,
                0.0
            ],
            [
                0.0,
                3.76175356,
                0.0
            ],
            [
                0.0,
                0.0,
                4.26098957
            ]
        ],
        "epsilon_electronic_avg": 3.8956176866666663,
        "epsilon_electronic_eig": [
            3.66410993,
            3.76175356,
            4.26098957
        ]
    },
    "phonon": {
        "lowest_freq": -0.06030652963358726,
        "frequency": [
            -0.06030652963358726,
            -0.056892294568895524,
            -0.040431464080661866,
            2.051668514103454,
            2.344938920424134,
            2.6586746721755006,
            2.9930987667098523,
            3.4467390262233555,
            3.6006030840149332,
            3.733259410972403,
            3.92452211476642,
            3.929853199625533,
            4.047237230592697,
            4.300470754188453,
            4.333053797738883,
            4.451404894637053,
            4.608522524737699,
            5.066254634153646,
            5.181508251387913,
            5.223337887830078,
            5.66089366851166,
            6.3097862234131,
            6.314325454930887,
            6.4028498939896386,
            6.568969257236518,
            6.9459675097678595,
            7.305847181181323,
            7.680127851183577,
            7.980170689905514,
            8.283428623956713,
            8.59626250581794,
            8.61518234435227,
            8.894341229729664,
            8.969622233451533,
            9.662574688460806,
            10.006878502999236,
            10.340149650011371,
            10.37703023803512,
            10.418750870216815,
            10.59841923595244,
            10.865250757305613,
            11.073120358913616,
            11.929903644181334,
            12.016842612390763,
            12.39606556599765,
            12.41518953435926,
            13.18390174692792,
            14.007791671607986,
            14.043063973535752,
            14.910451147095339,
            15.72775712274633,
            16.835323928871624,
            22.541703365537266,
            23.1834892075419,
            23.297840012206795,
            23.412861118528358,
            23.562703418593426,
            23.794433060061714,
            24.055755428292134,
            24.05975092076358
        ]
    },
    "born_effective_charge": {
        "avg_abs_trace": 2.3905003333333337,
        "tensors": [
            [
                [
                    2.72071,
                    -0.41081,
                    0.18201
                ],
                [
                    -0.20931,
                    2.40697,
                    -0.02814
                ],
                [
                    -0.02767,
                    0.11006,
                    2.41223
                ]
            ],
            [
                [
                    2.72068,
                    0.41079,
                    -0.182
                ],
                [
                    0.20931,
                    2.40697,
                    -0.02814
                ],
                [
                    0.02767,
                    0.11006,
                    2.41223
                ]
            ],
            [
                [
                    2.72071,
                    0.41081,
                    0.18201
                ],
                [
                    0.20932,
                    2.40697,
                    0.02815
                ],
                [
                    -0.02767,
                    -0.11006,
                    2.41223
                ]
            ],
            [
                [
                    2.72068,
                    -0.41079,
                    -0.182
                ],
                [
                    -0.20932,
                    2.40697,
                    0.02815
                ],
                [
                    0.02767,
                    -0.11006,
                    2.41223
                ]
            ],
            [
                [
                    2.78552,
                    -0.0,
                    -0.0
                ],
                [
                    -0.0,
                    3.14152,
                    -0.25254
                ],
                [
                    -0.0,
                    -0.03729,
                    4.9356
                ]
            ],
            [
                [
                    2.78552,
                    0.0,
                    -0.0
                ],
                [
                    -0.0,
                    3.14152,
                    0.25255
                ],
                [
                    -0.0,
                    0.03729,
                    4.9356
                ]
            ],
            [
                [
                    3.08689,
                    -0.0,
                    -0.0
                ],
                [
                    -0.0,
                    3.15429,
                    0.0349
                ],
                [
                    -0.0,
                    -0.16707,
                    3.67388
                ]
            ],
            [
                [
                    3.08689,
                    0.0,
                    -0.0
                ],
                [
                    -0.0,
                    3.15431,
                    -0.03489
                ],
                [
                    -0.0,
                    0.16707,
                    3.67388
                ]
            ],
            [
                [
                    -2.13018,
                    0.06495,
                    0.04405
                ],
                [
                    0.03916,
                    -1.74948,
                    0.3404
                ],
                [
                    0.05613,
                    0.9744,
                    -2.91909
                ]
            ],
            [
                [
                    -1.96639,
                    -0.20783,
                    0.14625
                ],
                [
                    -0.29543,
                    -1.89403,
                    0.19591
                ],
                [
                    0.08405,
                    0.11964,
                    -1.6156
                ]
            ],
            [
                [
                    -1.96639,
                    0.20783,
                    0.14625
                ],
                [
                    0.29544,
                    -1.89404,
                    -0.19591
                ],
                [
                    0.08405,
                    -0.11964,
                    -1.6156
                ]
            ],
            [
                [
                    -2.13017,
                    -0.06496,
                    -0.04405
                ],
                [
                    -0.03916,
                    -1.74948,
                    0.3404
                ],
                [
                    -0.05613,
                    0.9744,
                    -2.91909
                ]
            ],
            [
                [
                    -1.48641,
                    0.0,
                    1e-05
                ],
                [
                    -0.0,
                    -1.62165,
                    0.05153
                ],
                [
                    -0.0,
                    0.02862,
                    -2.78872
                ]
            ],
            [
                [
                    -2.13017,
                    0.06496,
                    -0.04405
                ],
                [
                    0.03917,
                    -1.74948,
                    -0.3404
                ],
                [
                    -0.05613,
                    -0.9744,
                    -2.91909
                ]
            ],
            [
                [
                    -1.48641,
                    -0.0,
                    1e-05
                ],
                [
                    -0.0,
                    -1.62167,
                    -0.05156
                ],
                [
                    -0.0,
                    -0.02862,
                    -2.78872
                ]
            ],
            [
                [
                    -2.13018,
                    -0.06495,
                    0.04405
                ],
                [
                    -0.03917,
                    -1.74948,
                    -0.3404
                ],
                [
                    0.05613,
                    -0.9744,
                    -2.91909
                ]
            ],
            [
                [
                    -1.63426,
                    1e-05,
                    -0.0
                ],
                [
                    -0.0,
                    -2.20106,
                    0.29347
                ],
                [
                    -0.0,
                    0.09511,
                    -1.57584
                ]
            ],
            [
                [
                    -1.9664,
                    -0.20784,
                    -0.14626
                ],
                [
                    -0.29544,
                    -1.89404,
                    -0.19591
                ],
                [
                    -0.08405,
                    -0.11964,
                    -1.6156
                ]
            ],
            [
                [
                    -1.63426,
                    -1e-05,
                    -0.0
                ],
                [
                    -0.0,
                    -2.20108,
                    -0.29349
                ],
                [
                    -0.0,
                    -0.09511,
                    -1.57584
                ]
            ],
            [
                [
                    -1.9664,
                    0.20784,
                    -0.14626
                ],
                [
                    0.29543,
                    -1.89403,
                    0.19591
                ],
                [
                    -0.08405,
                    0.11964,
                    -1.6156
                ]
            ]
        ]
    },
    "band_gap": 3.1947,
    "is_direct": false,
    "formula": "Ca2BiAsO6"
}