{
    "mp_id": "mp-561446",
    "nelements": 4,
    "nsites": 14,
    "elements": [
        "Ba",
        "Ca",
        "Ga",
        "O"
    ],
    "structure": {
        "@module": "pymatgen.core.structure",
        "@class": "Structure",
        "charge": null,
        "lattice": {
            "matrix": [
                [
                    -4.10441841,
                    4.58328394,
                    2.57999161
                ],
                [
                    4.10441841,
                    -4.58328394,
                    2.57999161
                ],
                [
                    4.10441841,
                    4.58328394,
                    -2.57999161
                ]
            ],
            "a": 6.671513986096353,
            "b": 6.671513986096353,
            "c": 6.671513986096353,
            "alpha": 104.06484763165223,
            "beta": 93.21489225493507,
            "gamma": 134.4991800981668,
            "volume": 194.13626728888846
        },
        "sites": [
            {
                "species": [
                    {
                        "element": "Ba",
                        "occu": 1
                    }
                ],
                "abc": [
                    0.0125208,
                    0.0125208,
                    0.0
                ],
                "xyz": [
                    0.0,
                    0.0,
                    0.06460711790097601
                ],
                "label": "Ba",
                "properties": {}
            },
            {
                "species": [
                    {
                        "element": "Ca",
                        "occu": 1
                    }
                ],
                "abc": [
                    0.93023244,
                    0.43023244,
                    0.5
                ],
                "xyz": [
                    -4.440892098500626e-16,
                    4.583283940000001,
                    2.2199921710996566
                ],
                "label": "Ca",
                "properties": {}
            },
            {
                "species": [
                    {
                        "element": "Ga",
                        "occu": 1
                    }
                ],
                "abc": [
                    0.62708017,
                    0.16858191,
                    0.87641433
                ],
                "xyz": [
                    1.7153024115428486,
                    6.118283435050806,
                    -0.20834012748862207
                ],
                "label": "Ga",
                "properties": {}
            },
            {
                "species": [
                    {
                        "element": "Ga",
                        "occu": 1
                    }
                ],
                "abc": [
                    0.29216857,
                    0.16858191,
                    0.54150174
                ],
                "xyz": [
                    1.7152983481686226,
                    3.048288982400296,
                    -0.20833757329692837
                ],
                "label": "Ga",
                "properties": {}
            },
            {
                "species": [
                    {
                        "element": "Ga",
                        "occu": 1
                    }
                ],
                "abc": [
                    0.29216857,
                    0.75066683,
                    0.12358567
                ],
                "xyz": [
                    2.389115998457151,
                    -1.5349994950508052,
                    2.3716565908947653
                ],
                "label": "Ga",
                "properties": {}
            },
            {
                "species": [
                    {
                        "element": "Ga",
                        "occu": 1
                    }
                ],
                "abc": [
                    0.62708017,
                    0.75066683,
                    0.45849826
                ],
                "xyz": [
                    2.3891200618313766,
                    1.5349949575997042,
                    2.371654036703071
                ],
                "label": "Ga",
                "properties": {}
            },
            {
                "species": [
                    {
                        "element": "O",
                        "occu": 1
                    }
                ],
                "abc": [
                    0.26465195,
                    0.39661012,
                    0.45966266
                ],
                "xyz": [
                    2.42825942639148,
                    1.5019627260828907,
                    0.5201247863809502
                ],
                "label": "O",
                "properties": {}
            },
            {
                "species": [
                    {
                        "element": "O",
                        "occu": 1
                    }
                ],
                "abc": [
                    0.93694745,
                    0.80498929,
                    0.54033734
                ],
                "xyz": [
                    1.6761590246527036,
                    3.081321168084271,
                    3.1001163705810337
                ],
                "label": "O",
                "properties": {}
            },
            {
                "species": [
                    {
                        "element": "O",
                        "occu": 1
                    }
                ],
                "abc": [
                    0.57464635,
                    0.38467439,
                    0.81002805
                ],
                "xyz": [
                    2.544969631028617,
                    4.583283985832839,
                    0.38517388763433047
                ],
                "label": "O",
                "properties": {}
            },
            {
                "species": [
                    {
                        "element": "O",
                        "occu": 1
                    }
                ],
                "abc": [
                    0.57464635,
                    0.7646183,
                    0.18997195
                ],
                "xyz": [
                    1.559448737927199,
                    2.220446049250313e-16,
                    2.965165523434247
                ],
                "label": "O",
                "properties": {}
            },
            {
                "species": [
                    {
                        "element": "O",
                        "occu": 1
                    }
                ],
                "abc": [
                    0.93694745,
                    0.39661012,
                    0.13195817
                ],
                "xyz": [
                    -1.6761589425643355,
                    3.0813211680842705,
                    3.100116370581034
                ],
                "label": "O",
                "properties": {}
            },
            {
                "species": [
                    {
                        "element": "O",
                        "occu": 1
                    }
                ],
                "abc": [
                    0.26465195,
                    0.80498929,
                    0.86804183
                ],
                "xyz": [
                    5.780577393608519,
                    1.5019627260828914,
                    0.5201247863809502
                ],
                "label": "O",
                "properties": {}
            },
            {
                "species": [
                    {
                        "element": "O",
                        "occu": 1
                    }
                ],
                "abc": [
                    0.41826276,
                    0.09287989,
                    0.32538386
                ],
                "xyz": [
                    4.06337422598213e-06,
                    2.9826487022953163,
                    0.4792561196837519
                ],
                "label": "O",
                "properties": {}
            },
            {
                "species": [
                    {
                        "element": "O",
                        "occu": 1
                    }
                ],
                "abc": [
                    0.76749603,
                    0.09287989,
                    0.67461614
                ],
                "xyz": [
                    4.440892098500626e-16,
                    6.183914640253583,
                    0.4792586738754454
                ],
                "label": "O",
                "properties": {}
            }
        ]
    },
    "spacegroup": {
        "source": "spglib",
        "symbol": "Imm2",
        "number": 44,
        "point_group": "mm2",
        "crystal_system": "orthorhombic",
        "hall": "I 2 -2"
    },
    "dielectric": {
        "epsilon_ionic": [
            [
                9.22858786,
                0.0,
                -6.3e-06
            ],
            [
                0.0,
                8.18595026,
                -3.974e-05
            ],
            [
                -6.3e-06,
                -3.974e-05,
                8.10129647
            ]
        ],
        "epsilon_ionic_avg": 8.505278196666668,
        "epsilon_ionic_eig": [
            9.228587860035216,
            8.101296451309189,
            8.1859502786556
        ],
        "epsilon_electronic": [
            [
                3.48696181,
                0.0,
                0.0
            ],
            [
                0.0,
                3.66442882,
                0.0
            ],
            [
                0.0,
                0.0,
                3.61298858
            ]
        ],
        "epsilon_electronic_avg": 3.5881264033333333,
        "epsilon_electronic_eig": [
            3.48696181,
            3.66442882,
            3.61298858
        ]
    },
    "phonon": {
        "lowest_freq": -0.02992786091025148,
        "frequency": [
            -0.02992786091025148,
            -0.029375452313985723,
            -0.01882229603563655,
            2.4712755860474753,
            2.5909551539577835,
            2.9724231199469062,
            3.662684951711489,
            3.677686870301671,
            4.06145031648913,
            4.14560491959189,
            4.634266684899382,
            4.933425354423923,
            5.3376038070054825,
            5.624711199254141,
            6.020632450526283,
            6.357559770744856,
            6.727105546218357,
            6.854636860445355,
            6.960065862545799,
            7.392566364923232,
            7.629045385367578,
            7.81101103379102,
            8.585334553828746,
            8.873710909566272,
            9.695276934182738,
            9.901927183806642,
            12.290540156497235,
            12.347837598268136,
            14.062229900143068,
            15.050668491977039,
            15.130956552090478,
            15.72220173341336,
            15.821921231558289,
            16.066741872195376,
            18.449214254480363,
            18.71848210281585,
            19.113275025200004,
            19.24993677455013,
            19.275205149197447,
            20.31565315372039,
            22.113333088377825,
            22.435340370928046
        ]
    },
    "born_effective_charge": {
        "avg_abs_trace": 2.246370238095238,
        "tensors": [
            [
                [
                    3.01857,
                    0.0,
                    0.0
                ],
                [
                    -0.0,
                    2.57638,
                    -0.0
                ],
                [
                    -0.0,
                    -0.0,
                    2.48388
                ]
            ],
            [
                [
                    2.41179,
                    0.0,
                    -4e-05
                ],
                [
                    0.0,
                    2.62531,
                    -5e-05
                ],
                [
                    -0.0,
                    -0.0,
                    2.40393
                ]
            ],
            [
                [
                    2.46103,
                    0.06214,
                    -0.38098
                ],
                [
                    -0.09677,
                    2.72609,
                    -0.16198
                ],
                [
                    0.03772,
                    0.24457,
                    2.72639
                ]
            ],
            [
                [
                    2.46103,
                    -0.06214,
                    -0.38098
                ],
                [
                    0.09675,
                    2.726,
                    0.16188
                ],
                [
                    0.03772,
                    -0.24457,
                    2.72639
                ]
            ],
            [
                [
                    2.46105,
                    0.06219,
                    0.381
                ],
                [
                    -0.09675,
                    2.726,
                    0.16188
                ],
                [
                    -0.03772,
                    -0.24457,
                    2.72639
                ]
            ],
            [
                [
                    2.46105,
                    -0.06219,
                    0.381
                ],
                [
                    0.09677,
                    2.72609,
                    -0.16198
                ],
                [
                    -0.03772,
                    0.24457,
                    2.72639
                ]
            ],
            [
                [
                    -1.67308,
                    0.32864,
                    -0.20936
                ],
                [
                    0.24987,
                    -1.97046,
                    0.22632
                ],
                [
                    -0.10108,
                    0.18174,
                    -2.24844
                ]
            ],
            [
                [
                    -1.67306,
                    0.3286,
                    0.20938
                ],
                [
                    0.2499,
                    -1.97053,
                    -0.22625
                ],
                [
                    0.10108,
                    -0.18174,
                    -2.24844
                ]
            ],
            [
                [
                    -1.674,
                    -0.0,
                    -0.22743
                ],
                [
                    4e-05,
                    -2.37742,
                    2e-05
                ],
                [
                    -0.22409,
                    0.0,
                    -1.82445
                ]
            ],
            [
                [
                    -1.67398,
                    0.0,
                    0.22738
                ],
                [
                    -4e-05,
                    -2.37742,
                    2e-05
                ],
                [
                    0.22409,
                    0.0,
                    -1.82445
                ]
            ],
            [
                [
                    -1.67308,
                    -0.32864,
                    -0.20936
                ],
                [
                    -0.2499,
                    -1.97053,
                    -0.22625
                ],
                [
                    -0.10108,
                    -0.18174,
                    -2.24844
                ]
            ],
            [
                [
                    -1.67306,
                    -0.3286,
                    0.20938
                ],
                [
                    -0.24987,
                    -1.97046,
                    0.22632
                ],
                [
                    0.10108,
                    0.18174,
                    -2.24844
                ]
            ],
            [
                [
                    -2.61712,
                    -2e-05,
                    1e-05
                ],
                [
                    0.0,
                    -1.73451,
                    -0.2279
                ],
                [
                    -0.0,
                    -0.12433,
                    -1.57537
                ]
            ],
            [
                [
                    -2.61712,
                    2e-05,
                    1e-05
                ],
                [
                    0.0,
                    -1.73456,
                    0.22796
                ],
                [
                    0.0,
                    0.12433,
                    -1.57537
                ]
            ]
        ]
    },
    "band_gap": 3.1136,
    "is_direct": false,
    "formula": "BaCa(GaO2)4"
}