{
    "mp_id": "mp-555070",
    "nelements": 4,
    "nsites": 22,
    "elements": [
        "B",
        "Ba",
        "Be",
        "O"
    ],
    "structure": {
        "@module": "pymatgen.core.structure",
        "@class": "Structure",
        "charge": null,
        "lattice": {
            "matrix": [
                [
                    0.0,
                    5.85665555,
                    6.51573402
                ],
                [
                    3.13872797,
                    0.0,
                    6.51573402
                ],
                [
                    3.13872797,
                    5.85665555,
                    0.0
                ]
            ],
            "a": 8.761004739796181,
            "b": 7.232316578320233,
            "c": 6.644699203199956,
            "alpha": 78.17048050190108,
            "beta": 53.89903115334327,
            "gamma": 47.93048834475563,
            "volume": 239.55029123811417
        },
        "sites": [
            {
                "species": [
                    {
                        "element": "Ba",
                        "occu": 1
                    }
                ],
                "abc": [
                    0.25,
                    0.25,
                    0.25
                ],
                "xyz": [
                    1.569363985,
                    2.928327775,
                    3.25786701
                ],
                "label": "Ba",
                "properties": {}
            },
            {
                "species": [
                    {
                        "element": "Ba",
                        "occu": 1
                    }
                ],
                "abc": [
                    0.0,
                    0.0,
                    0.0
                ],
                "xyz": [
                    0.0,
                    0.0,
                    0.0
                ],
                "label": "Ba",
                "properties": {}
            },
            {
                "species": [
                    {
                        "element": "Be",
                        "occu": 1
                    }
                ],
                "abc": [
                    0.4077461,
                    0.4077461,
                    0.5922539
                ],
                "xyz": [
                    3.13872797,
                    5.85665555,
                    5.313530270584644
                ],
                "label": "Be",
                "properties": {}
            },
            {
                "species": [
                    {
                        "element": "Be",
                        "occu": 1
                    }
                ],
                "abc": [
                    0.8422539,
                    0.8422539,
                    0.6577461
                ],
                "xyz": [
                    4.708091955,
                    8.784983325,
                    10.975804779415355
                ],
                "label": "Be",
                "properties": {}
            },
            {
                "species": [
                    {
                        "element": "Be",
                        "occu": 1
                    }
                ],
                "abc": [
                    0.6577461,
                    0.6577461,
                    0.8422539
                ],
                "xyz": [
                    4.708091955,
                    8.784983325,
                    8.571397280584645
                ],
                "label": "Be",
                "properties": {}
            },
            {
                "species": [
                    {
                        "element": "Be",
                        "occu": 1
                    }
                ],
                "abc": [
                    0.5922539,
                    0.5922539,
                    0.4077461
                ],
                "xyz": [
                    3.13872797,
                    5.85665555,
                    7.717937769415356
                ],
                "label": "Be",
                "properties": {}
            },
            {
                "species": [
                    {
                        "element": "B",
                        "occu": 1
                    }
                ],
                "abc": [
                    0.28437533,
                    0.71562467,
                    0.28437533
                ],
                "xyz": [
                    3.13872797,
                    3.3309767094551628,
                    6.51573402
                ],
                "label": "B",
                "properties": {}
            },
            {
                "species": [
                    {
                        "element": "B",
                        "occu": 1
                    }
                ],
                "abc": [
                    0.53437533,
                    0.96562467,
                    0.53437533
                ],
                "xyz": [
                    4.708091955,
                    6.259304484455163,
                    9.77360103
                ],
                "label": "B",
                "properties": {}
            },
            {
                "species": [
                    {
                        "element": "B",
                        "occu": 1
                    }
                ],
                "abc": [
                    0.71562467,
                    0.28437533,
                    0.71562467
                ],
                "xyz": [
                    3.13872797,
                    8.382334390544838,
                    6.51573402
                ],
                "label": "B",
                "properties": {}
            },
            {
                "species": [
                    {
                        "element": "B",
                        "occu": 1
                    }
                ],
                "abc": [
                    0.96562467,
                    0.53437533,
                    0.96562467
                ],
                "xyz": [
                    4.708091955,
                    11.310662165544837,
                    9.77360103
                ],
                "label": "B",
                "properties": {}
            },
            {
                "species": [
                    {
                        "element": "O",
                        "occu": 1
                    }
                ],
                "abc": [
                    0.59778667,
                    0.40221333,
                    0.59778667
                ],
                "xyz": [
                    3.13872797,
                    7.002061237143037,
                    6.51573402
                ],
                "label": "O",
                "properties": {}
            },
            {
                "species": [
                    {
                        "element": "O",
                        "occu": 1
                    }
                ],
                "abc": [
                    0.1560226,
                    0.52210073,
                    0.8923496
                ],
                "xyz": [
                    4.439574812946731,
                    6.13995486359571,
                    4.418471251036687
                ],
                "label": "O",
                "properties": {}
            },
            {
                "species": [
                    {
                        "element": "O",
                        "occu": 1
                    }
                ],
                "abc": [
                    0.72789927,
                    0.0939774,
                    0.82047294
                ],
                "xyz": [
                    2.8702108593340103,
                    9.068282697162266,
                    5.355129778963313
                ],
                "label": "O",
                "properties": {}
            },
            {
                "species": [
                    {
                        "element": "O",
                        "occu": 1
                    }
                ],
                "abc": [
                    0.42952706,
                    0.8923496,
                    0.52210073
                ],
                "xyz": [
                    4.439574812946731,
                    5.573356177837735,
                    8.612996723805972
                ],
                "label": "O",
                "properties": {}
            },
            {
                "species": [
                    {
                        "element": "O",
                        "occu": 1
                    }
                ],
                "abc": [
                    0.0939774,
                    0.72789927,
                    0.3576504
                ],
                "xyz": [
                    3.4072451120532703,
                    2.6450284614042903,
                    5.355129778963313
                ],
                "label": "O",
                "properties": {}
            },
            {
                "species": [
                    {
                        "element": "O",
                        "occu": 1
                    }
                ],
                "abc": [
                    0.8923496,
                    0.42952706,
                    0.1560226
                ],
                "xyz": [
                    1.8378810956659906,
                    6.13995486359571,
                    8.612996723805972
                ],
                "label": "O",
                "properties": {}
            },
            {
                "species": [
                    {
                        "element": "O",
                        "occu": 1
                    }
                ],
                "abc": [
                    0.40221333,
                    0.59778667,
                    0.40221333
                ],
                "xyz": [
                    3.13872797,
                    4.711249862856963,
                    6.51573402
                ],
                "label": "O",
                "properties": {}
            },
            {
                "species": [
                    {
                        "element": "O",
                        "occu": 1
                    }
                ],
                "abc": [
                    0.84778667,
                    0.65221333,
                    0.84778667
                ],
                "xyz": [
                    4.708091955,
                    9.930389012143037,
                    9.77360103
                ],
                "label": "O",
                "properties": {}
            },
            {
                "species": [
                    {
                        "element": "O",
                        "occu": 1
                    }
                ],
                "abc": [
                    0.82047294,
                    0.3576504,
                    0.72789927
                ],
                "xyz": [
                    3.4072451120532703,
                    9.068282697162266,
                    7.676338326194027
                ],
                "label": "O",
                "properties": {}
            },
            {
                "species": [
                    {
                        "element": "O",
                        "occu": 1
                    }
                ],
                "abc": [
                    0.3576504,
                    0.82047294,
                    0.0939774
                ],
                "xyz": [
                    2.8702108593340103,
                    2.6450284614042903,
                    7.676338326194027
                ],
                "label": "O",
                "properties": {}
            },
            {
                "species": [
                    {
                        "element": "O",
                        "occu": 1
                    }
                ],
                "abc": [
                    0.65221333,
                    0.84778667,
                    0.65221333
                ],
                "xyz": [
                    4.708091955,
                    7.639577637856964,
                    9.77360103
                ],
                "label": "O",
                "properties": {}
            },
            {
                "species": [
                    {
                        "element": "O",
                        "occu": 1
                    }
                ],
                "abc": [
                    0.52210073,
                    0.1560226,
                    0.42952706
                ],
                "xyz": [
                    1.8378810956659906,
                    5.573356177837735,
                    4.418471251036687
                ],
                "label": "O",
                "properties": {}
            }
        ]
    },
    "spacegroup": {
        "source": "spglib",
        "symbol": "Fddd",
        "number": 70,
        "point_group": "mmm",
        "crystal_system": "orthorhombic",
        "hall": "F 2 2 -1d"
    },
    "dielectric": {
        "epsilon_ionic": [
            [
                8.47024443,
                -0.0,
                0.0
            ],
            [
                -0.0,
                6.34201546,
                0.0
            ],
            [
                0.0,
                0.0,
                5.05550241
            ]
        ],
        "epsilon_ionic_avg": 6.622587433333333,
        "epsilon_ionic_eig": [
            8.47024443,
            6.34201546,
            5.05550241
        ],
        "epsilon_electronic": [
            [
                2.81025008,
                0.0,
                0.0
            ],
            [
                0.0,
                3.10793927,
                0.0
            ],
            [
                0.0,
                0.0,
                3.09266858
            ]
        ],
        "epsilon_electronic_avg": 3.00361931,
        "epsilon_electronic_eig": [
            2.81025008,
            3.10793927,
            3.09266858
        ]
    },
    "phonon": {
        "lowest_freq": -0.14306873471340617,
        "frequency": [
            -0.14306873471340617,
            -0.031962528141477216,
            -0.00849662904954376,
            1.6513908668212107,
            1.7753203012813914,
            2.6095895298862595,
            2.951271549982956,
            3.3044246822645764,
            3.3507164129279206,
            3.750683066692487,
            3.8884379290621736,
            4.645070719039574,
            4.826928485076482,
            4.938032374191978,
            5.8446253143323466,
            5.942453202020417,
            6.512574022413069,
            6.747448182458314,
            7.80691392397765,
            8.070568929800576,
            8.82308879540625,
            9.392534822053014,
            9.769005522518118,
            10.219162676435694,
            11.116843943184316,
            12.577215871153458,
            12.594999741195625,
            12.633550299187796,
            13.09227076224485,
            13.233495327099236,
            13.82793530999555,
            14.763478878106955,
            15.651866232609905,
            17.026893298377228,
            17.059399613179465,
            17.832907728450074,
            18.780302740478405,
            19.45673330085112,
            19.556423946310947,
            20.233941024440394,
            20.3093207648098,
            20.318472221204704,
            20.487875179459103,
            20.81472463100133,
            22.019500261875034,
            22.026234040484646,
            22.320425729312554,
            23.341104844789275,
            23.545549742702107,
            23.712465596976532,
            24.380739042743848,
            24.560338423013956,
            24.578465605158605,
            25.38440287769286,
            30.079130508918148,
            30.15972837495912,
            30.19711735389352,
            31.7552375347474,
            37.749496411020054,
            38.44255247146133,
            38.512332774952434,
            38.61201271752963,
            38.67083801971877,
            39.262693092688856,
            40.64635379640766,
            41.23064998745896
        ]
    },
    "born_effective_charge": {
        "avg_abs_trace": 1.919496060606061,
        "tensors": [
            [
                [
                    2.62896,
                    0.0,
                    -0.0
                ],
                [
                    -0.0,
                    2.7809,
                    0.0
                ],
                [
                    -0.0,
                    -0.0,
                    2.75419
                ]
            ],
            [
                [
                    2.62896,
                    0.0,
                    -0.0
                ],
                [
                    -0.0,
                    2.7809,
                    0.0
                ],
                [
                    -0.0,
                    -0.0,
                    2.75419
                ]
            ],
            [
                [
                    1.80445,
                    0.14642,
                    -5e-05
                ],
                [
                    0.04565,
                    1.68219,
                    1e-05
                ],
                [
                    -0.0,
                    -0.0,
                    2.11701
                ]
            ],
            [
                [
                    1.80445,
                    0.14642,
                    5e-05
                ],
                [
                    0.04565,
                    1.68219,
                    -1e-05
                ],
                [
                    -0.0,
                    -0.0,
                    2.117
                ]
            ],
            [
                [
                    1.80445,
                    -0.14642,
                    -5e-05
                ],
                [
                    -0.04565,
                    1.68219,
                    1e-05
                ],
                [
                    -0.0,
                    -0.0,
                    2.11701
                ]
            ],
            [
                [
                    1.80445,
                    -0.14642,
                    5e-05
                ],
                [
                    -0.04565,
                    1.68219,
                    -1e-05
                ],
                [
                    -0.0,
                    -0.0,
                    2.117
                ]
            ],
            [
                [
                    0.80361,
                    2e-05,
                    -0.49985
                ],
                [
                    -0.0,
                    2.73186,
                    0.0
                ],
                [
                    -0.54721,
                    1e-05,
                    2.61471
                ]
            ],
            [
                [
                    0.80361,
                    2e-05,
                    0.49985
                ],
                [
                    -0.0,
                    2.73186,
                    0.0
                ],
                [
                    0.54721,
                    1e-05,
                    2.61471
                ]
            ],
            [
                [
                    0.80361,
                    -2e-05,
                    0.49985
                ],
                [
                    -0.0,
                    2.73186,
                    0.0
                ],
                [
                    0.54721,
                    -1e-05,
                    2.61471
                ]
            ],
            [
                [
                    0.80361,
                    -2e-05,
                    -0.49985
                ],
                [
                    -0.0,
                    2.73186,
                    0.0
                ],
                [
                    -0.54721,
                    -1e-05,
                    2.61471
                ]
            ],
            [
                [
                    -1.01528,
                    4e-05,
                    -0.06962
                ],
                [
                    0.0,
                    -2.66443,
                    0.0
                ],
                [
                    -0.10745,
                    -5e-05,
                    -1.56377
                ]
            ],
            [
                [
                    -1.45366,
                    0.00185,
                    0.30277
                ],
                [
                    0.05963,
                    -1.57005,
                    -0.30766
                ],
                [
                    0.29464,
                    -0.21326,
                    -2.27252
                ]
            ],
            [
                [
                    -1.45366,
                    0.00185,
                    -0.30277
                ],
                [
                    0.05963,
                    -1.57005,
                    0.30766
                ],
                [
                    -0.29466,
                    0.21335,
                    -2.27251
                ]
            ],
            [
                [
                    -1.45366,
                    -0.00185,
                    -0.30277
                ],
                [
                    -0.05963,
                    -1.57007,
                    -0.30765
                ],
                [
                    -0.29466,
                    -0.21335,
                    -2.27251
                ]
            ],
            [
                [
                    -1.4536,
                    0.00181,
                    0.30268
                ],
                [
                    0.05963,
                    -1.57007,
                    -0.30765
                ],
                [
                    0.29466,
                    -0.21335,
                    -2.27251
                ]
            ],
            [
                [
                    -1.4536,
                    -0.00181,
                    0.30268
                ],
                [
                    -0.05963,
                    -1.57005,
                    0.30766
                ],
                [
                    0.29466,
                    0.21335,
                    -2.27251
                ]
            ],
            [
                [
                    -1.01528,
                    -4e-05,
                    0.06962
                ],
                [
                    -0.0,
                    -2.66432,
                    0.0
                ],
                [
                    0.10745,
                    5e-05,
                    -1.56377
                ]
            ],
            [
                [
                    -1.01528,
                    4e-05,
                    0.06962
                ],
                [
                    -0.0,
                    -2.66443,
                    0.0
                ],
                [
                    0.10745,
                    -5e-05,
                    -1.56377
                ]
            ],
            [
                [
                    -1.4536,
                    -0.00181,
                    -0.30268
                ],
                [
                    -0.05963,
                    -1.57005,
                    -0.30766
                ],
                [
                    -0.29464,
                    -0.21326,
                    -2.27252
                ]
            ],
            [
                [
                    -1.45366,
                    -0.00185,
                    0.30277
                ],
                [
                    -0.05963,
                    -1.57007,
                    0.30765
                ],
                [
                    0.29464,
                    0.21326,
                    -2.27252
                ]
            ],
            [
                [
                    -1.01528,
                    -4e-05,
                    -0.06962
                ],
                [
                    0.0,
                    -2.66432,
                    0.0
                ],
                [
                    -0.10745,
                    5e-05,
                    -1.56377
                ]
            ],
            [
                [
                    -1.4536,
                    0.00181,
                    -0.30268
                ],
                [
                    0.05963,
                    -1.57007,
                    0.30765
                ],
                [
                    -0.29464,
                    0.21326,
                    -2.27252
                ]
            ]
        ]
    },
    "band_gap": 5.4633,
    "is_direct": false,
    "formula": "BaBe2(BO3)2"
}