{
    "mp_id": "mp-651814",
    "nelements": 3,
    "nsites": 24,
    "elements": [
        "Cs",
        "O",
        "V"
    ],
    "structure": {
        "@module": "pymatgen.core.structure",
        "@class": "Structure",
        "charge": null,
        "lattice": {
            "matrix": [
                [
                    5.01070643,
                    0.0,
                    0.00321263
                ],
                [
                    0.0,
                    8.52869596,
                    0.0
                ],
                [
                    -0.95796527,
                    0.0,
                    8.13557417
                ]
            ],
            "a": 5.010707459893748,
            "b": 8.52869596,
            "c": 8.191780303090248,
            "alpha": 90.0,
            "beta": 96.67892875565758,
            "gamma": 90.0,
            "volume": 347.6983152153342
        },
        "sites": [
            {
                "species": [
                    {
                        "element": "Cs",
                        "occu": 1
                    }
                ],
                "abc": [
                    0.92818188,
                    0.75,
                    0.06553329
                ],
                "xyz": [
                    4.58806829847665,
                    6.39652197,
                    0.5361328463522637
                ],
                "label": "Cs",
                "properties": {}
            },
            {
                "species": [
                    {
                        "element": "Cs",
                        "occu": 1
                    }
                ],
                "abc": [
                    0.07181812,
                    0.25,
                    0.93446671
                ],
                "xyz": [
                    -0.5353271384766501,
                    2.13217399,
                    7.602653953647737
                ],
                "label": "Cs",
                "properties": {}
            },
            {
                "species": [
                    {
                        "element": "V",
                        "occu": 1
                    }
                ],
                "abc": [
                    0.56348264,
                    0.4437162,
                    0.32924359
                ],
                "xyz": [
                    2.5080421628512557,
                    3.784320562326552,
                    2.6803959076758135
                ],
                "label": "V",
                "properties": {}
            },
            {
                "species": [
                    {
                        "element": "V",
                        "occu": 1
                    }
                ],
                "abc": [
                    0.43651736,
                    0.9437162,
                    0.67075641
                ],
                "xyz": [
                    1.5446989971487441,
                    8.048668542326553,
                    5.458390892324187
                ],
                "label": "V",
                "properties": {}
            },
            {
                "species": [
                    {
                        "element": "V",
                        "occu": 1
                    }
                ],
                "abc": [
                    0.43651736,
                    0.5562838,
                    0.67075641
                ],
                "xyz": [
                    1.5446989971487441,
                    4.744375397673448,
                    5.458390892324187
                ],
                "label": "V",
                "properties": {}
            },
            {
                "species": [
                    {
                        "element": "V",
                        "occu": 1
                    }
                ],
                "abc": [
                    0.56348264,
                    0.0562838,
                    0.32924359
                ],
                "xyz": [
                    2.5080421628512557,
                    0.48002741767344803,
                    2.6803959076758135
                ],
                "label": "V",
                "properties": {}
            },
            {
                "species": [
                    {
                        "element": "V",
                        "occu": 1
                    }
                ],
                "abc": [
                    0.92706803,
                    0.75,
                    0.57858106
                ],
                "xyz": [
                    4.091005177608647,
                    6.39652197,
                    4.710067453552439
                ],
                "label": "V",
                "properties": {}
            },
            {
                "species": [
                    {
                        "element": "V",
                        "occu": 1
                    }
                ],
                "abc": [
                    0.07293197,
                    0.25,
                    0.42141894
                ],
                "xyz": [
                    -0.03826401760864673,
                    2.13217399,
                    3.428719346447561
                ],
                "label": "V",
                "properties": {}
            },
            {
                "species": [
                    {
                        "element": "O",
                        "occu": 1
                    }
                ],
                "abc": [
                    0.89000084,
                    0.3996846,
                    0.27807995
                ],
                "xyz": [
                    4.1931419973100645,
                    3.408788433294216,
                    2.265199301813501
                ],
                "label": "O",
                "properties": {}
            },
            {
                "species": [
                    {
                        "element": "O",
                        "occu": 1
                    }
                ],
                "abc": [
                    0.10999916,
                    0.8996846,
                    0.72192005
                ],
                "xyz": [
                    -0.1404008373100647,
                    7.673136413294216,
                    5.873587498186499
                ],
                "label": "O",
                "properties": {}
            },
            {
                "species": [
                    {
                        "element": "O",
                        "occu": 1
                    }
                ],
                "abc": [
                    0.10999916,
                    0.6003154,
                    0.72192005
                ],
                "xyz": [
                    -0.1404008373100647,
                    5.119907526705784,
                    5.873587498186499
                ],
                "label": "O",
                "properties": {}
            },
            {
                "species": [
                    {
                        "element": "O",
                        "occu": 1
                    }
                ],
                "abc": [
                    0.89000084,
                    0.1003154,
                    0.27807995
                ],
                "xyz": [
                    4.1931419973100645,
                    0.855559546705784,
                    2.265199301813501
                ],
                "label": "O",
                "properties": {}
            },
            {
                "species": [
                    {
                        "element": "O",
                        "occu": 1
                    }
                ],
                "abc": [
                    0.567365,
                    0.4415547,
                    0.81608682
                ],
                "xyz": [
                    2.061116622792208,
                    3.7658857860090125,
                    6.641157587089389
                ],
                "label": "O",
                "properties": {}
            },
            {
                "species": [
                    {
                        "element": "O",
                        "occu": 1
                    }
                ],
                "abc": [
                    0.432635,
                    0.9415547,
                    0.18391318
                ],
                "xyz": [
                    1.9916245372077914,
                    8.030233766009012,
                    1.4976292129106108
                ],
                "label": "O",
                "properties": {}
            },
            {
                "species": [
                    {
                        "element": "O",
                        "occu": 1
                    }
                ],
                "abc": [
                    0.432635,
                    0.5584453,
                    0.18391318
                ],
                "xyz": [
                    1.9916245372077914,
                    4.762810173990989,
                    1.4976292129106108
                ],
                "label": "O",
                "properties": {}
            },
            {
                "species": [
                    {
                        "element": "O",
                        "occu": 1
                    }
                ],
                "abc": [
                    0.567365,
                    0.0584453,
                    0.81608682
                ],
                "xyz": [
                    2.061116622792208,
                    0.498462193990988,
                    6.641157587089389
                ],
                "label": "O",
                "properties": {}
            },
            {
                "species": [
                    {
                        "element": "O",
                        "occu": 1
                    }
                ],
                "abc": [
                    0.87282138,
                    0.25,
                    0.56360602
                ],
                "xyz": [
                    3.833536707884548,
                    2.13217399,
                    4.588062630518533
                ],
                "label": "O",
                "properties": {}
            },
            {
                "species": [
                    {
                        "element": "O",
                        "occu": 1
                    }
                ],
                "abc": [
                    0.12717862,
                    0.75,
                    0.43639398
                ],
                "xyz": [
                    0.21920445211545198,
                    6.39652197,
                    3.5507241694814673
                ],
                "label": "O",
                "properties": {}
            },
            {
                "species": [
                    {
                        "element": "O",
                        "occu": 1
                    }
                ],
                "abc": [
                    0.41784972,
                    0.25,
                    0.25962869
                ],
                "xyz": [
                    1.8450070106621035,
                    2.13217399,
                    2.113570860700901
                ],
                "label": "O",
                "properties": {}
            },
            {
                "species": [
                    {
                        "element": "O",
                        "occu": 1
                    }
                ],
                "abc": [
                    0.58215028,
                    0.75,
                    0.74037131
                ],
                "xyz": [
                    2.2077341493378966,
                    6.39652197,
                    6.025215939299099
                ],
                "label": "O",
                "properties": {}
            },
            {
                "species": [
                    {
                        "element": "O",
                        "occu": 1
                    }
                ],
                "abc": [
                    0.31640145,
                    0.08825747,
                    0.49659974
                ],
                "xyz": [
                    1.1096694759652934,
                    0.7527211278288213,
                    4.0411404983630295
                ],
                "label": "O",
                "properties": {}
            },
            {
                "species": [
                    {
                        "element": "O",
                        "occu": 1
                    }
                ],
                "abc": [
                    0.68359855,
                    0.58825747,
                    0.50340026
                ],
                "xyz": [
                    2.943071684034706,
                    5.017069107828821,
                    4.0976463016369715
                ],
                "label": "O",
                "properties": {}
            },
            {
                "species": [
                    {
                        "element": "O",
                        "occu": 1
                    }
                ],
                "abc": [
                    0.68359855,
                    0.91174253,
                    0.50340026
                ],
                "xyz": [
                    2.943071684034706,
                    7.77597483217118,
                    4.0976463016369715
                ],
                "label": "O",
                "properties": {}
            },
            {
                "species": [
                    {
                        "element": "O",
                        "occu": 1
                    }
                ],
                "abc": [
                    0.31640145,
                    0.41174253,
                    0.49659974
                ],
                "xyz": [
                    1.1096694759652934,
                    3.511626852171179,
                    4.0411404983630295
                ],
                "label": "O",
                "properties": {}
            }
        ]
    },
    "spacegroup": {
        "source": "spglib",
        "symbol": "P2_1/m",
        "number": 11,
        "point_group": "2/m",
        "crystal_system": "monoclinic",
        "hall": "-P 2yb"
    },
    "dielectric": {
        "epsilon_ionic": [
            [
                13.45643014,
                1.1e-07,
                1.45733701
            ],
            [
                1.1e-07,
                16.73309402,
                -2.4e-07
            ],
            [
                1.45733701,
                -2.4e-07,
                3.64665723
            ]
        ],
        "epsilon_ionic_avg": 11.278727130000002,
        "epsilon_ionic_eig": [
            3.4347339076916583,
            13.668353462308342,
            16.733094020000006
        ],
        "epsilon_electronic": [
            [
                5.25024056,
                0.0,
                0.29497348
            ],
            [
                0.0,
                5.17446426,
                0.0
            ],
            [
                0.29497216,
                0.0,
                3.43819735
            ]
        ],
        "epsilon_electronic_avg": 4.620967390000001,
        "epsilon_electronic_eig": [
            5.297048485013157,
            3.3913894249868433,
            5.17446426
        ]
    },
    "phonon": {
        "lowest_freq": -0.09174851228398272,
        "frequency": [
            -0.09174851228398272,
            -0.08024636839404019,
            -0.017609617222977,
            1.157407702636221,
            1.3406437115124972,
            1.402287706893826,
            1.7691752074651181,
            1.7766324832131557,
            2.3662815288864723,
            2.397739376333016,
            3.5305511762825903,
            3.661957501335666,
            3.7016970183019775,
            4.057706418966738,
            4.199364921926581,
            4.445110062745833,
            4.8105985395305435,
            5.222224517405146,
            5.241502571043922,
            5.313808838928038,
            5.493156548407817,
            6.30341326088878,
            6.3661369715140985,
            6.609374048610564,
            6.858715455757913,
            6.937431918356184,
            7.18600001600531,
            7.238572238046121,
            7.613157985342238,
            7.737209070650521,
            7.781233542461921,
            8.262738706246061,
            8.77100290370709,
            8.773438819608842,
            8.803346505579453,
            8.981836726858084,
            9.373432912008159,
            9.530205767723253,
            9.653222464096816,
            10.147747218910709,
            10.387825219228159,
            11.130999586742645,
            11.55693383015284,
            11.672557508568126,
            12.494459278699138,
            12.668787986115836,
            12.68395953106082,
            12.786168208930478,
            14.004099114286104,
            14.209678674049007,
            14.759082557507323,
            14.90472268405131,
            15.039567062324696,
            15.619710455305677,
            15.72602329474213,
            16.690426068672107,
            18.493081946694694,
            18.64209876378947,
            18.895779604122325,
            19.045520828443014,
            19.467113314965605,
            20.60789198849115,
            21.90900410736582,
            22.38239114534699,
            23.1951300193495,
            23.365019846088003,
            28.89857069869747,
            28.93276817539401,
            29.025126317408862,
            29.363535043295247,
            29.95958963385751,
            30.19005758715225
        ]
    },
    "born_effective_charge": {
        "avg_abs_trace": 2.5565313888888888,
        "tensors": [
            [
                [
                    1.37375,
                    0.0,
                    0.07268
                ],
                [
                    1e-05,
                    1.33815,
                    -1e-05
                ],
                [
                    0.15824,
                    0.0,
                    2.00795
                ]
            ],
            [
                [
                    1.37388,
                    0.0,
                    0.07263
                ],
                [
                    -1e-05,
                    1.33815,
                    1e-05
                ],
                [
                    0.15866,
                    0.0,
                    2.00773
                ]
            ],
            [
                [
                    4.91665,
                    0.01843,
                    -0.47864
                ],
                [
                    -0.24566,
                    5.25928,
                    1.84932
                ],
                [
                    0.28867,
                    0.25137,
                    2.57143
                ]
            ],
            [
                [
                    4.91657,
                    -0.01828,
                    -0.47864
                ],
                [
                    0.24566,
                    5.25928,
                    -1.84932
                ],
                [
                    0.28873,
                    -0.25088,
                    2.57099
                ]
            ],
            [
                [
                    4.91657,
                    0.01828,
                    -0.47864
                ],
                [
                    -0.24602,
                    5.25944,
                    1.85029
                ],
                [
                    0.28873,
                    0.25088,
                    2.57099
                ]
            ],
            [
                [
                    4.91665,
                    -0.01843,
                    -0.47864
                ],
                [
                    0.24602,
                    5.25944,
                    -1.85029
                ],
                [
                    0.28867,
                    -0.25137,
                    2.57143
                ]
            ],
            [
                [
                    7.13726,
                    0.0,
                    2.5735
                ],
                [
                    -0.00037,
                    6.39101,
                    -0.0006
                ],
                [
                    0.77092,
                    0.0,
                    2.27537
                ]
            ],
            [
                [
                    7.13732,
                    0.0,
                    2.57335
                ],
                [
                    0.00037,
                    6.39101,
                    0.0006
                ],
                [
                    0.77082,
                    0.0,
                    2.27479
                ]
            ],
            [
                [
                    -3.47317,
                    1.36819,
                    -0.67405
                ],
                [
                    1.28074,
                    -1.89474,
                    0.26384
                ],
                [
                    -0.22643,
                    0.29722,
                    -0.91516
                ]
            ],
            [
                [
                    -3.47309,
                    -1.36837,
                    -0.67423
                ],
                [
                    -1.28074,
                    -1.89474,
                    -0.26384
                ],
                [
                    -0.2269,
                    -0.29748,
                    -0.91459
                ]
            ],
            [
                [
                    -3.47309,
                    1.36837,
                    -0.67423
                ],
                [
                    1.28107,
                    -1.89451,
                    0.26382
                ],
                [
                    -0.2269,
                    0.29748,
                    -0.91459
                ]
            ],
            [
                [
                    -3.47317,
                    -1.36819,
                    -0.67405
                ],
                [
                    -1.28107,
                    -1.89451,
                    -0.26382
                ],
                [
                    -0.22643,
                    -0.29722,
                    -0.91516
                ]
            ],
            [
                [
                    -0.87658,
                    0.41665,
                    -0.5797
                ],
                [
                    0.38439,
                    -1.49462,
                    0.89719
                ],
                [
                    -0.4256,
                    0.74357,
                    -1.50317
                ]
            ],
            [
                [
                    -0.87671,
                    -0.4167,
                    -0.57995
                ],
                [
                    -0.38439,
                    -1.49462,
                    -0.89719
                ],
                [
                    -0.42644,
                    -0.74388,
                    -1.50414
                ]
            ],
            [
                [
                    -0.87671,
                    0.4167,
                    -0.57995
                ],
                [
                    0.38437,
                    -1.49601,
                    0.89671
                ],
                [
                    -0.42644,
                    0.74388,
                    -1.50414
                ]
            ],
            [
                [
                    -0.87658,
                    -0.41665,
                    -0.5797
                ],
                [
                    -0.38437,
                    -1.49601,
                    -0.89671
                ],
                [
                    -0.4256,
                    -0.74357,
                    -1.50317
                ]
            ],
            [
                [
                    -1.64007,
                    0.0,
                    0.57851
                ],
                [
                    -0.00048,
                    -0.74857,
                    0.00026
                ],
                [
                    0.24354,
                    0.0,
                    -0.90716
                ]
            ],
            [
                [
                    -1.64035,
                    0.0,
                    0.57815
                ],
                [
                    0.00048,
                    -0.74857,
                    -0.00026
                ],
                [
                    0.24213,
                    0.0,
                    -0.90605
                ]
            ],
            [
                [
                    -2.07869,
                    0.0,
                    0.07381
                ],
                [
                    -9e-05,
                    -3.99208,
                    -6e-05
                ],
                [
                    -0.11762,
                    0.0,
                    -0.87325
                ]
            ],
            [
                [
                    -2.07852,
                    0.0,
                    0.07444
                ],
                [
                    9e-05,
                    -3.99208,
                    6e-05
                ],
                [
                    -0.1177,
                    0.0,
                    -0.87352
                ]
            ],
            [
                [
                    -2.96298,
                    1.57292,
                    0.0834
                ],
                [
                    1.58097,
                    -3.36374,
                    2.11514
                ],
                [
                    -0.16309,
                    0.9068,
                    -1.40394
                ]
            ],
            [
                [
                    -2.96299,
                    -1.57308,
                    0.08328
                ],
                [
                    -1.58097,
                    -3.36374,
                    -2.11514
                ],
                [
                    -0.16344,
                    -0.90716,
                    -1.40437
                ]
            ],
            [
                [
                    -2.96299,
                    1.57308,
                    0.08328
                ],
                [
                    1.58072,
                    -3.36362,
                    2.1149
                ],
                [
                    -0.16344,
                    0.90716,
                    -1.40437
                ]
            ],
            [
                [
                    -2.96298,
                    -1.57292,
                    0.0834
                ],
                [
                    -1.58072,
                    -3.36362,
                    -2.1149
                ],
                [
                    -0.16309,
                    -0.9068,
                    -1.40394
                ]
            ]
        ]
    },
    "band_gap": 2.1475999999999997,
    "is_direct": false,
    "formula": "CsV3O8"
}