{
    "mp_id": "mp-6064",
    "nelements": 4,
    "nsites": 22,
    "elements": [
        "Mg",
        "O",
        "Pt",
        "Sr"
    ],
    "structure": {
        "@module": "pymatgen.core.structure",
        "@class": "Structure",
        "charge": null,
        "lattice": {
            "matrix": [
                [
                    4.7907884,
                    2.76596335,
                    3.68662538
                ],
                [
                    -4.7907884,
                    2.76596335,
                    3.68662538
                ],
                [
                    0.0,
                    -5.5319257,
                    3.68662538
                ]
            ],
            "a": 6.647812680843071,
            "b": 6.647812680843071,
            "c": 6.647812320062942,
            "alpha": 92.21739716673126,
            "beta": 92.21739716673126,
            "gamma": 92.2173925038428,
            "volume": 293.11201242259745
        },
        "sites": [
            {
                "species": [
                    {
                        "element": "Sr",
                        "occu": 1
                    }
                ],
                "abc": [
                    0.25,
                    0.61513225,
                    0.88486775
                ],
                "xyz": [
                    -1.7492713477659003,
                    -2.5020985509231375,
                    6.451594415000001
                ],
                "label": "Sr",
                "properties": {}
            },
            {
                "species": [
                    {
                        "element": "Sr",
                        "occu": 1
                    }
                ],
                "abc": [
                    0.61513225,
                    0.88486775,
                    0.25
                ],
                "xyz": [
                    -1.2922457044681992,
                    2.7659635999999996,
                    6.451594415
                ],
                "label": "Sr",
                "properties": {}
            },
            {
                "species": [
                    {
                        "element": "Sr",
                        "occu": 1
                    }
                ],
                "abc": [
                    0.11513225,
                    0.75,
                    0.38486775
                ],
                "xyz": [
                    -3.0415170522341004,
                    0.26386429907686226,
                    4.608281724999999
                ],
                "label": "Sr",
                "properties": {}
            },
            {
                "species": [
                    {
                        "element": "Sr",
                        "occu": 1
                    }
                ],
                "abc": [
                    0.75,
                    0.38486775,
                    0.11513225
                ],
                "xyz": [
                    1.7492713477659,
                    2.502099550923137,
                    4.608281725
                ],
                "label": "Sr",
                "properties": {}
            },
            {
                "species": [
                    {
                        "element": "Sr",
                        "occu": 1
                    }
                ],
                "abc": [
                    0.38486775,
                    0.11513225,
                    0.75
                ],
                "xyz": [
                    1.2922457044682,
                    -2.7659626,
                    4.608281725
                ],
                "label": "Sr",
                "properties": {}
            },
            {
                "species": [
                    {
                        "element": "Sr",
                        "occu": 1
                    }
                ],
                "abc": [
                    0.88486775,
                    0.25,
                    0.61513225
                ],
                "xyz": [
                    3.0415170522340995,
                    -0.26386329907686346,
                    6.451594415000001
                ],
                "label": "Sr",
                "properties": {}
            },
            {
                "species": [
                    {
                        "element": "Mg",
                        "occu": 1
                    }
                ],
                "abc": [
                    0.25,
                    0.25,
                    0.25
                ],
                "xyz": [
                    0.0,
                    2.499999998128999e-07,
                    2.764969035
                ],
                "label": "Mg",
                "properties": {}
            },
            {
                "species": [
                    {
                        "element": "Mg",
                        "occu": 1
                    }
                ],
                "abc": [
                    0.75,
                    0.75,
                    0.75
                ],
                "xyz": [
                    0.0,
                    7.499999998827889e-07,
                    8.294907105
                ],
                "label": "Mg",
                "properties": {}
            },
            {
                "species": [
                    {
                        "element": "Pt",
                        "occu": 1
                    }
                ],
                "abc": [
                    0.0,
                    0.0,
                    0.0
                ],
                "xyz": [
                    0.0,
                    0.0,
                    0.0
                ],
                "label": "Pt",
                "properties": {}
            },
            {
                "species": [
                    {
                        "element": "Pt",
                        "occu": 1
                    }
                ],
                "abc": [
                    0.5,
                    0.5,
                    0.5
                ],
                "xyz": [
                    0.0,
                    4.999999996257998e-07,
                    5.52993807
                ],
                "label": "Pt",
                "properties": {}
            },
            {
                "species": [
                    {
                        "element": "O",
                        "occu": 1
                    }
                ],
                "abc": [
                    0.78773467,
                    0.59409255,
                    0.46348555
                ],
                "xyz": [
                    0.9276984222474076,
                    1.2581158209287513,
                    6.802976891920103
                ],
                "label": "O",
                "properties": {}
            },
            {
                "species": [
                    {
                        "element": "O",
                        "occu": 1
                    }
                ],
                "abc": [
                    0.59409255,
                    0.46348555,
                    0.78773467
                ],
                "xyz": [
                    0.6257105005588004,
                    -1.4324674013913836,
                    6.802976891920103
                ],
                "label": "O",
                "properties": {}
            },
            {
                "species": [
                    {
                        "element": "O",
                        "occu": 1
                    }
                ],
                "abc": [
                    0.46348555,
                    0.78773467,
                    0.59409255
                ],
                "xyz": [
                    -1.553408922806208,
                    0.17435342577540114,
                    6.802976891920103
                ],
                "label": "O",
                "properties": {}
            },
            {
                "species": [
                    {
                        "element": "O",
                        "occu": 1
                    }
                ],
                "abc": [
                    0.03651445,
                    0.90590745,
                    0.71226533
                ],
                "xyz": [
                    -4.1650778994412,
                    -1.3334944486086169,
                    6.100211938079898
                ],
                "label": "O",
                "properties": {}
            },
            {
                "species": [
                    {
                        "element": "O",
                        "occu": 1
                    }
                ],
                "abc": [
                    0.90590745,
                    0.71226533,
                    0.03651445
                ],
                "xyz": [
                    0.9276984222474076,
                    4.2738113790712475,
                    6.100211938079897
                ],
                "label": "O",
                "properties": {}
            },
            {
                "species": [
                    {
                        "element": "O",
                        "occu": 1
                    }
                ],
                "abc": [
                    0.71226533,
                    0.03651445,
                    0.90590745
                ],
                "xyz": [
                    3.2373794771937923,
                    -2.9403152757754016,
                    6.100211938079898
                ],
                "label": "O",
                "properties": {}
            },
            {
                "species": [
                    {
                        "element": "O",
                        "occu": 1
                    }
                ],
                "abc": [
                    0.21226533,
                    0.40590745,
                    0.53651445
                ],
                "xyz": [
                    -0.9276984222474081,
                    -1.258114820928752,
                    4.256899248079898
                ],
                "label": "O",
                "properties": {}
            },
            {
                "species": [
                    {
                        "element": "O",
                        "occu": 1
                    }
                ],
                "abc": [
                    0.40590745,
                    0.53651445,
                    0.21226533
                ],
                "xyz": [
                    -0.6257105005588,
                    1.432468401391384,
                    4.256899248079898
                ],
                "label": "O",
                "properties": {}
            },
            {
                "species": [
                    {
                        "element": "O",
                        "occu": 1
                    }
                ],
                "abc": [
                    0.53651445,
                    0.21226533,
                    0.40590745
                ],
                "xyz": [
                    1.553408922806208,
                    -0.17435242577540233,
                    4.256899248079897
                ],
                "label": "O",
                "properties": {}
            },
            {
                "species": [
                    {
                        "element": "O",
                        "occu": 1
                    }
                ],
                "abc": [
                    0.96348555,
                    0.09409255,
                    0.28773467
                ],
                "xyz": [
                    4.165077899441201,
                    1.3334954486086155,
                    4.959664201920103
                ],
                "label": "O",
                "properties": {}
            },
            {
                "species": [
                    {
                        "element": "O",
                        "occu": 1
                    }
                ],
                "abc": [
                    0.28773467,
                    0.96348555,
                    0.09409255
                ],
                "xyz": [
                    -3.237379477193792,
                    2.9403162757754018,
                    4.959664201920103
                ],
                "label": "O",
                "properties": {}
            },
            {
                "species": [
                    {
                        "element": "O",
                        "occu": 1
                    }
                ],
                "abc": [
                    0.09409255,
                    0.28773467,
                    0.96348555
                ],
                "xyz": [
                    -0.9276984222474083,
                    -4.273810379071248,
                    4.959664201920103
                ],
                "label": "O",
                "properties": {}
            }
        ]
    },
    "spacegroup": {
        "source": "spglib",
        "symbol": "R-3c",
        "number": 167,
        "point_group": "-3m",
        "crystal_system": "trigonal",
        "hall": "-R 3 2\"c"
    },
    "dielectric": {
        "epsilon_ionic": [
            [
                7.75854183,
                1e-08,
                -3e-08
            ],
            [
                1e-08,
                7.75856013,
                5.6e-06
            ],
            [
                -3e-08,
                5.6e-06,
                7.6830305
            ]
        ],
        "epsilon_ionic_avg": 7.733377486666666,
        "epsilon_ionic_eig": [
            7.6830304995847865,
            7.75854182999455,
            7.75856013042066
        ],
        "epsilon_electronic": [
            [
                4.35197851,
                0.0,
                0.0
            ],
            [
                0.0,
                4.35197932,
                0.0
            ],
            [
                0.0,
                -0.0,
                4.55001938
            ]
        ],
        "epsilon_electronic_avg": 4.417992403333334,
        "epsilon_electronic_eig": [
            4.35197851,
            4.35197932,
            4.55001938
        ]
    },
    "phonon": {
        "lowest_freq": -0.023057404220532898,
        "frequency": [
            -0.023057404220532898,
            -0.02305740204760706,
            -0.02221460776848448,
            3.524099167639065,
            3.6458849601034085,
            3.645884970158586,
            3.6459220501121066,
            3.645922053463798,
            3.673598937503853,
            3.684495054986828,
            3.815283190427649,
            3.8152834979069437,
            4.046875191883222,
            4.3753090275559785,
            4.375309153238596,
            4.790400808293199,
            4.7904011679751815,
            4.792632961940521,
            5.191803283005624,
            5.191803730210771,
            5.22269738664259,
            5.538554199122926,
            5.53855426531352,
            5.667571873604897,
            6.1750118076291285,
            6.454253025219229,
            6.454253100952278,
            6.534845319918979,
            6.921143708870872,
            6.921143761839025,
            7.827832538440457,
            7.827833225323144,
            8.127651501822298,
            8.967121991403515,
            8.969596130271208,
            8.969596716094983,
            9.087026425734255,
            9.491685262287584,
            9.491685275162018,
            10.101547564361148,
            10.101547649041288,
            10.228566863215013,
            10.228567090206854,
            10.471989031989455,
            11.238400689670181,
            11.238400831024888,
            11.262562735715651,
            11.262562876767102,
            11.476764305480186,
            11.476764422603853,
            11.64575149390995,
            11.767426530665619,
            12.362022312181876,
            13.651820522398841,
            16.207705723828123,
            16.246787086567583,
            16.246787688286865,
            17.269683740821737,
            17.3834858520559,
            17.383486273835743,
            18.093748842034813,
            18.093749314795023,
            18.566254980188457,
            18.566255440917047,
            18.936447059121114,
            19.13256978008324
        ]
    },
    "born_effective_charge": {
        "avg_abs_trace": 2.137917878787879,
        "tensors": [
            [
                [
                    2.84205,
                    0.07467,
                    -0.28963
                ],
                [
                    0.0746,
                    2.75565,
                    -0.16713
                ],
                [
                    -0.28021,
                    -0.16177,
                    2.32159
                ]
            ],
            [
                [
                    2.71257,
                    -0.0,
                    0.0
                ],
                [
                    6e-05,
                    2.88524,
                    0.3344
                ],
                [
                    1e-05,
                    0.32355,
                    2.32159
                ]
            ],
            [
                [
                    2.84209,
                    -0.07471,
                    0.28958
                ],
                [
                    -0.0746,
                    2.75565,
                    -0.16713
                ],
                [
                    0.28021,
                    -0.16177,
                    2.32159
                ]
            ],
            [
                [
                    2.84209,
                    0.07471,
                    -0.28958
                ],
                [
                    0.07484,
                    2.75588,
                    -0.16726
                ],
                [
                    -0.2802,
                    -0.16178,
                    2.32159
                ]
            ],
            [
                [
                    2.71265,
                    -0.0,
                    0.0
                ],
                [
                    -6e-05,
                    2.88524,
                    0.3344
                ],
                [
                    -1e-05,
                    0.32355,
                    2.32159
                ]
            ],
            [
                [
                    2.84205,
                    -0.07467,
                    0.28963
                ],
                [
                    -0.07484,
                    2.75588,
                    -0.16726
                ],
                [
                    0.2802,
                    -0.16178,
                    2.32159
                ]
            ],
            [
                [
                    1.35123,
                    -0.0,
                    0.0
                ],
                [
                    -3e-05,
                    1.35122,
                    -0.0
                ],
                [
                    -0.0,
                    -0.0,
                    2.9877
                ]
            ],
            [
                [
                    1.35121,
                    -0.0,
                    0.0
                ],
                [
                    3e-05,
                    1.35122,
                    -0.0
                ],
                [
                    -0.0,
                    -0.0,
                    2.9877
                ]
            ],
            [
                [
                    1.76748,
                    -0.03337,
                    0.0
                ],
                [
                    0.03337,
                    1.76748,
                    -0.0
                ],
                [
                    -0.0,
                    -0.0,
                    2.29225
                ]
            ],
            [
                [
                    1.76748,
                    0.03337,
                    -0.0
                ],
                [
                    -0.03337,
                    1.76748,
                    -0.0
                ],
                [
                    -0.0,
                    -0.0,
                    2.29225
                ]
            ],
            [
                [
                    -1.7364,
                    -0.38581,
                    -0.38445
                ],
                [
                    -0.45614,
                    -2.1021,
                    -0.52138
                ],
                [
                    -0.44631,
                    -0.6829,
                    -2.04077
                ]
            ],
            [
                [
                    -1.6461,
                    0.40401,
                    -0.25929
                ],
                [
                    0.33388,
                    -2.1922,
                    0.59364
                ],
                [
                    -0.36825,
                    0.72797,
                    -2.04077
                ]
            ],
            [
                [
                    -2.37525,
                    0.08708,
                    0.64369
                ],
                [
                    0.01692,
                    -1.4632,
                    -0.07227
                ],
                [
                    0.81457,
                    -0.04507,
                    -2.04077
                ]
            ],
            [
                [
                    -1.6461,
                    -0.40401,
                    0.25929
                ],
                [
                    -0.33366,
                    -2.19252,
                    0.59364
                ],
                [
                    0.36792,
                    0.72808,
                    -2.0408
                ]
            ],
            [
                [
                    -1.7364,
                    0.38581,
                    0.38445
                ],
                [
                    0.45606,
                    -2.10223,
                    -0.52132
                ],
                [
                    0.44657,
                    -0.68267,
                    -2.0408
                ]
            ],
            [
                [
                    -2.37525,
                    -0.08708,
                    -0.64369
                ],
                [
                    -0.01697,
                    -1.46322,
                    -0.07231
                ],
                [
                    -0.81449,
                    -0.04541,
                    -2.0408
                ]
            ],
            [
                [
                    -1.73626,
                    -0.38588,
                    -0.38451
                ],
                [
                    -0.45606,
                    -2.10223,
                    -0.52132
                ],
                [
                    -0.44657,
                    -0.68267,
                    -2.0408
                ]
            ],
            [
                [
                    -1.64615,
                    0.40405,
                    -0.25925
                ],
                [
                    0.33366,
                    -2.19252,
                    0.59364
                ],
                [
                    -0.36792,
                    0.72808,
                    -2.0408
                ]
            ],
            [
                [
                    -2.37531,
                    0.08734,
                    0.64379
                ],
                [
                    0.01697,
                    -1.46322,
                    -0.07231
                ],
                [
                    0.81449,
                    -0.04541,
                    -2.0408
                ]
            ],
            [
                [
                    -1.64615,
                    -0.40405,
                    0.25925
                ],
                [
                    -0.33388,
                    -2.1922,
                    0.59364
                ],
                [
                    0.36825,
                    0.72797,
                    -2.04077
                ]
            ],
            [
                [
                    -2.37531,
                    -0.08734,
                    -0.64379
                ],
                [
                    -0.01692,
                    -1.4632,
                    -0.07227
                ],
                [
                    -0.81457,
                    -0.04507,
                    -2.04077
                ]
            ],
            [
                [
                    -1.73626,
                    0.38588,
                    0.38451
                ],
                [
                    0.45614,
                    -2.1021,
                    -0.52138
                ],
                [
                    0.44631,
                    -0.6829,
                    -2.04077
                ]
            ]
        ]
    },
    "band_gap": 3.1750999999999996,
    "is_direct": false,
    "formula": "Sr3MgPtO6"
}