{
    "mp_id": "mp-6499",
    "nelements": 4,
    "nsites": 24,
    "elements": [
        "B",
        "Ba",
        "Li",
        "O"
    ],
    "structure": {
        "@module": "pymatgen.core.structure",
        "@class": "Structure",
        "charge": null,
        "lattice": {
            "matrix": [
                [
                    6.45012607,
                    0.0,
                    0.00115338
                ],
                [
                    0.0,
                    7.10988786,
                    0.0
                ],
                [
                    -3.41471219,
                    0.0,
                    6.55060532
                ]
            ],
            "a": 6.450126173120884,
            "b": 7.10988786,
            "c": 7.387197668869224,
            "alpha": 90.0,
            "beta": 117.52197176587349,
            "gamma": 90.0,
            "volume": 300.43662020721223
        },
        "sites": [
            {
                "species": [
                    {
                        "element": "Ba",
                        "occu": 1
                    }
                ],
                "abc": [
                    0.17730079,
                    0.63900809,
                    0.33525236
                ],
                "xyz": [
                    -0.0011778726076732138,
                    4.543275861532788,
                    2.1963103881437256
                ],
                "label": "Ba",
                "properties": {}
            },
            {
                "species": [
                    {
                        "element": "Ba",
                        "occu": 1
                    }
                ],
                "abc": [
                    0.82269921,
                    0.13900809,
                    0.16474764
                ],
                "xyz": [
                    4.743947847607673,
                    0.9883319315327874,
                    1.0801456518562746
                ],
                "label": "Ba",
                "properties": {}
            },
            {
                "species": [
                    {
                        "element": "Ba",
                        "occu": 1
                    }
                ],
                "abc": [
                    0.82269921,
                    0.36099191,
                    0.66474764
                ],
                "xyz": [
                    3.036591752607673,
                    2.566611998467213,
                    4.355448311856274
                ],
                "label": "Ba",
                "properties": {}
            },
            {
                "species": [
                    {
                        "element": "Ba",
                        "occu": 1
                    }
                ],
                "abc": [
                    0.17730079,
                    0.86099191,
                    0.83525236
                ],
                "xyz": [
                    -1.7085339676076732,
                    6.121555928467212,
                    5.471613048143726
                ],
                "label": "Ba",
                "properties": {}
            },
            {
                "species": [
                    {
                        "element": "Li",
                        "occu": 1
                    }
                ],
                "abc": [
                    0.59748225,
                    0.57112308,
                    0.19827051
                ],
                "xyz": [
                    3.1767991096727406,
                    4.060621053057809,
                    1.2994809816826183
                ],
                "label": "Li",
                "properties": {}
            },
            {
                "species": [
                    {
                        "element": "Li",
                        "occu": 1
                    }
                ],
                "abc": [
                    0.40251775,
                    0.07112308,
                    0.30172949
                ],
                "xyz": [
                    1.565970865327259,
                    0.5056771230578088,
                    1.9769750583173817
                ],
                "label": "Li",
                "properties": {}
            },
            {
                "species": [
                    {
                        "element": "Li",
                        "occu": 1
                    }
                ],
                "abc": [
                    0.40251775,
                    0.42887692,
                    0.80172949
                ],
                "xyz": [
                    -0.14138522967274092,
                    3.049266806942191,
                    5.252277718317382
                ],
                "label": "Li",
                "properties": {}
            },
            {
                "species": [
                    {
                        "element": "Li",
                        "occu": 1
                    }
                ],
                "abc": [
                    0.59748225,
                    0.92887692,
                    0.69827051
                ],
                "xyz": [
                    1.4694430146727409,
                    6.604210736942191,
                    4.574783641682618
                ],
                "label": "Li",
                "properties": {}
            },
            {
                "species": [
                    {
                        "element": "B",
                        "occu": 1
                    }
                ],
                "abc": [
                    0.28766744,
                    0.3374294,
                    0.08233874
                ],
                "xyz": [
                    1.5743281550469201,
                    2.3990851946670837,
                    0.539700378158044
                ],
                "label": "B",
                "properties": {}
            },
            {
                "species": [
                    {
                        "element": "B",
                        "occu": 1
                    }
                ],
                "abc": [
                    0.71233256,
                    0.8374294,
                    0.41766126
                ],
                "xyz": [
                    3.1684418199530797,
                    5.954029124667084,
                    2.736755661841956
                ],
                "label": "B",
                "properties": {}
            },
            {
                "species": [
                    {
                        "element": "B",
                        "occu": 1
                    }
                ],
                "abc": [
                    0.71233256,
                    0.6625706,
                    0.91766126
                ],
                "xyz": [
                    1.4610857249530795,
                    4.710802665332916,
                    6.012058321841955
                ],
                "label": "B",
                "properties": {}
            },
            {
                "species": [
                    {
                        "element": "B",
                        "occu": 1
                    }
                ],
                "abc": [
                    0.28766744,
                    0.1625706,
                    0.58233874
                ],
                "xyz": [
                    -0.13302793995307982,
                    1.155858735332916,
                    3.8150030381580433
                ],
                "label": "B",
                "properties": {}
            },
            {
                "species": [
                    {
                        "element": "O",
                        "occu": 1
                    }
                ],
                "abc": [
                    0.85625096,
                    0.81864422,
                    0.97730833
                ],
                "xyz": [
                    2.1856999717189844,
                    5.820468601437169,
                    6.40294872851056
                ],
                "label": "O",
                "properties": {}
            },
            {
                "species": [
                    {
                        "element": "O",
                        "occu": 1
                    }
                ],
                "abc": [
                    0.51463983,
                    0.83846669,
                    0.22676932
                ],
                "xyz": [
                    2.5451398228213575,
                    5.961404140245383,
                    1.4860698892919078
                ],
                "label": "O",
                "properties": {}
            },
            {
                "species": [
                    {
                        "element": "O",
                        "occu": 1
                    }
                ],
                "abc": [
                    0.48536017,
                    0.16153331,
                    0.77323068
                ],
                "xyz": [
                    0.4902740571786426,
                    1.1484837197546167,
                    5.065688810708092
                ],
                "label": "O",
                "properties": {}
            },
            {
                "species": [
                    {
                        "element": "O",
                        "occu": 1
                    }
                ],
                "abc": [
                    0.51463983,
                    0.66153331,
                    0.72676932
                ],
                "xyz": [
                    0.8377837278213573,
                    4.703427649754617,
                    4.761372549291909
                ],
                "label": "O",
                "properties": {}
            },
            {
                "species": [
                    {
                        "element": "O",
                        "occu": 1
                    }
                ],
                "abc": [
                    0.75888385,
                    0.99703909,
                    0.53844773
                ],
                "xyz": [
                    3.0562524776781412,
                    7.088836121936447,
                    3.5280338461348366
                ],
                "label": "O",
                "properties": {}
            },
            {
                "species": [
                    {
                        "element": "O",
                        "occu": 1
                    }
                ],
                "abc": [
                    0.24111615,
                    0.49703909,
                    0.96155227
                ],
                "xyz": [
                    -1.7281946926781409,
                    3.5338921919364474,
                    6.2990275138651635
                ],
                "label": "O",
                "properties": {}
            },
            {
                "species": [
                    {
                        "element": "O",
                        "occu": 1
                    }
                ],
                "abc": [
                    0.24111615,
                    0.00296091,
                    0.46155227
                ],
                "xyz": [
                    -0.02083859767814089,
                    0.0210517380635526,
                    3.023724853865163
                ],
                "label": "O",
                "properties": {}
            },
            {
                "species": [
                    {
                        "element": "O",
                        "occu": 1
                    }
                ],
                "abc": [
                    0.75888385,
                    0.50296091,
                    0.03844773
                ],
                "xyz": [
                    4.763608572678141,
                    3.5759956680635523,
                    0.2527311861348366
                ],
                "label": "O",
                "properties": {}
            },
            {
                "species": [
                    {
                        "element": "O",
                        "occu": 1
                    }
                ],
                "abc": [
                    0.14374904,
                    0.18135578,
                    0.02269167
                ],
                "xyz": [
                    0.8497139082810153,
                    1.2894192585628308,
                    0.1488099714894396
                ],
                "label": "O",
                "properties": {}
            },
            {
                "species": [
                    {
                        "element": "O",
                        "occu": 1
                    }
                ],
                "abc": [
                    0.85625096,
                    0.68135578,
                    0.47730833
                ],
                "xyz": [
                    3.8930560667189846,
                    4.844363188562831,
                    3.1276460685105607
                ],
                "label": "O",
                "properties": {}
            },
            {
                "species": [
                    {
                        "element": "O",
                        "occu": 1
                    }
                ],
                "abc": [
                    0.48536017,
                    0.33846669,
                    0.27323068
                ],
                "xyz": [
                    2.1976301521786423,
                    2.4064602102453834,
                    1.790386150708092
                ],
                "label": "O",
                "properties": {}
            },
            {
                "species": [
                    {
                        "element": "O",
                        "occu": 1
                    }
                ],
                "abc": [
                    0.14374904,
                    0.31864422,
                    0.52269167
                ],
                "xyz": [
                    -0.8576421867189848,
                    2.265524671437169,
                    3.42411263148944
                ],
                "label": "O",
                "properties": {}
            }
        ]
    },
    "spacegroup": {
        "source": "spglib",
        "symbol": "P2_1/c",
        "number": 14,
        "point_group": "2/m",
        "crystal_system": "monoclinic",
        "hall": "-P 2ybc"
    },
    "dielectric": {
        "epsilon_ionic": [
            [
                8.28079589,
                0.0,
                0.29247956
            ],
            [
                0.0,
                6.86042705,
                -1e-08
            ],
            [
                0.29247956,
                -1e-08,
                7.96623946
            ]
        ],
        "epsilon_ionic_avg": 7.702487466666665,
        "epsilon_ionic_eig": [
            8.455603100653368,
            7.79143224934663,
            6.86042705
        ],
        "epsilon_electronic": [
            [
                3.14569461,
                0.0,
                0.13543981
            ],
            [
                0.0,
                3.27241438,
                0.0
            ],
            [
                0.13544017,
                0.0,
                3.36148318
            ]
        ],
        "epsilon_electronic_avg": 3.259864056666667,
        "epsilon_electronic_eig": [
            3.080426636909997,
            3.426751153090003,
            3.27241438
        ]
    },
    "phonon": {
        "lowest_freq": -0.062076540893732136,
        "frequency": [
            -0.062076540893732136,
            -0.05369293315121822,
            -0.03365153407802085,
            2.373832527520915,
            2.522412552710627,
            2.6965760763332782,
            2.7100165062982065,
            2.9643614679756256,
            3.050217427289354,
            3.094758458148302,
            3.4464829373118717,
            3.5172525988774948,
            3.8120753291353884,
            3.8215438350475344,
            4.120603650565352,
            4.650865599955147,
            4.767434402000489,
            4.988574542700321,
            5.455423417037687,
            5.685659117367226,
            5.703510875998411,
            5.90145654216807,
            5.935917852839482,
            5.974159719306014,
            6.39497018012875,
            6.464321832295916,
            6.532639272986482,
            6.563203671272426,
            6.9430617075932926,
            7.127609603268059,
            7.210684681299561,
            7.259126534098474,
            7.400141266573874,
            7.843788968141326,
            8.054556624757087,
            8.471352650227754,
            8.723008667549701,
            9.045302194595992,
            9.449260821938571,
            9.93354653198292,
            13.453634430885328,
            13.625179600042873,
            13.770929503740883,
            14.017816960934233,
            14.422628882532075,
            14.603927447158842,
            14.662917077125265,
            14.68524475641515,
            16.920756110552382,
            16.936645143064137,
            17.089719108601894,
            17.171400513172195,
            17.362299100774983,
            17.49096718207026,
            17.66640765082251,
            17.815789152974876,
            21.823839748902543,
            21.866734456922234,
            22.019623629790683,
            22.17217878321607,
            26.708437938342247,
            26.70934809433625,
            26.724331996870582,
            26.74867040596221,
            35.531908979211245,
            35.853807136866145,
            36.004282543415385,
            36.24971253163191,
            37.227968862060585,
            37.27816346760645,
            37.43376082240173,
            38.06296179874513
        ]
    },
    "born_effective_charge": {
        "avg_abs_trace": 1.8750555555555557,
        "tensors": [
            [
                [
                    2.59245,
                    0.03786,
                    0.08085
                ],
                [
                    0.02401,
                    2.70517,
                    0.07834
                ],
                [
                    0.08568,
                    0.13687,
                    2.86682
                ]
            ],
            [
                [
                    2.59243,
                    -0.03782,
                    0.08082
                ],
                [
                    -0.02401,
                    2.70517,
                    -0.07834
                ],
                [
                    0.08572,
                    -0.13683,
                    2.86679
                ]
            ],
            [
                [
                    2.59243,
                    0.03782,
                    0.08082
                ],
                [
                    0.02392,
                    2.70505,
                    0.07834
                ],
                [
                    0.08572,
                    0.13683,
                    2.86679
                ]
            ],
            [
                [
                    2.59245,
                    -0.03786,
                    0.08085
                ],
                [
                    -0.02392,
                    2.70505,
                    -0.07834
                ],
                [
                    0.08568,
                    -0.13687,
                    2.86682
                ]
            ],
            [
                [
                    1.03451,
                    0.0987,
                    0.02347
                ],
                [
                    0.08604,
                    0.98336,
                    0.14824
                ],
                [
                    0.00637,
                    0.13961,
                    0.99016
                ]
            ],
            [
                [
                    1.0345,
                    -0.0987,
                    0.02347
                ],
                [
                    -0.08604,
                    0.98336,
                    -0.14824
                ],
                [
                    0.00637,
                    -0.13961,
                    0.99017
                ]
            ],
            [
                [
                    1.0345,
                    0.0987,
                    0.02347
                ],
                [
                    0.08602,
                    0.98336,
                    0.14824
                ],
                [
                    0.00637,
                    0.13961,
                    0.99017
                ]
            ],
            [
                [
                    1.03451,
                    -0.0987,
                    0.02347
                ],
                [
                    -0.08602,
                    0.98336,
                    -0.14824
                ],
                [
                    0.00637,
                    -0.13961,
                    0.99016
                ]
            ],
            [
                [
                    1.13284,
                    0.7021,
                    0.86404
                ],
                [
                    0.75038,
                    2.29809,
                    -0.36481
                ],
                [
                    0.80737,
                    -0.27094,
                    2.27217
                ]
            ],
            [
                [
                    1.13284,
                    -0.70208,
                    0.86404
                ],
                [
                    -0.75038,
                    2.29809,
                    0.36481
                ],
                [
                    0.80736,
                    0.27095,
                    2.27214
                ]
            ],
            [
                [
                    1.13284,
                    0.70208,
                    0.86404
                ],
                [
                    0.75032,
                    2.29815,
                    -0.36478
                ],
                [
                    0.80736,
                    -0.27095,
                    2.27214
                ]
            ],
            [
                [
                    1.13284,
                    -0.7021,
                    0.86404
                ],
                [
                    -0.75032,
                    2.29815,
                    0.36478
                ],
                [
                    0.80737,
                    0.27094,
                    2.27217
                ]
            ],
            [
                [
                    -1.74492,
                    -0.39869,
                    -0.16923
                ],
                [
                    -0.40317,
                    -2.20793,
                    -0.17873
                ],
                [
                    -0.19904,
                    -0.19829,
                    -1.72111
                ]
            ],
            [
                [
                    -1.64702,
                    -0.06278,
                    -0.6397
                ],
                [
                    -0.01228,
                    -1.48366,
                    -0.03308
                ],
                [
                    -0.55263,
                    0.01256,
                    -2.50052
                ]
            ],
            [
                [
                    -1.64698,
                    -0.06287,
                    -0.63972
                ],
                [
                    -0.01241,
                    -1.48372,
                    -0.03336
                ],
                [
                    -0.55255,
                    0.01254,
                    -2.50052
                ]
            ],
            [
                [
                    -1.64702,
                    0.06278,
                    -0.6397
                ],
                [
                    0.01241,
                    -1.48372,
                    0.03336
                ],
                [
                    -0.55263,
                    -0.01256,
                    -2.50052
                ]
            ],
            [
                [
                    -1.36787,
                    0.18208,
                    -0.15933
                ],
                [
                    0.20267,
                    -2.2949,
                    -0.45852
                ],
                [
                    -0.14781,
                    -0.45156,
                    -1.90747
                ]
            ],
            [
                [
                    -1.36791,
                    -0.18204,
                    -0.15938
                ],
                [
                    -0.20267,
                    -2.2949,
                    0.45852
                ],
                [
                    -0.1478,
                    0.45167,
                    -1.90744
                ]
            ],
            [
                [
                    -1.36791,
                    0.18204,
                    -0.15938
                ],
                [
                    0.20248,
                    -2.29491,
                    -0.45846
                ],
                [
                    -0.1478,
                    -0.45167,
                    -1.90744
                ]
            ],
            [
                [
                    -1.36787,
                    -0.18208,
                    -0.15933
                ],
                [
                    -0.20248,
                    -2.29491,
                    0.45846
                ],
                [
                    -0.14781,
                    0.45156,
                    -1.90747
                ]
            ],
            [
                [
                    -1.74488,
                    -0.39867,
                    -0.16932
                ],
                [
                    -0.40349,
                    -2.20806,
                    -0.17884
                ],
                [
                    -0.19903,
                    -0.19823,
                    -1.72118
                ]
            ],
            [
                [
                    -1.74492,
                    0.39869,
                    -0.16923
                ],
                [
                    0.40349,
                    -2.20806,
                    0.17884
                ],
                [
                    -0.19904,
                    0.19829,
                    -1.72111
                ]
            ],
            [
                [
                    -1.64698,
                    0.06287,
                    -0.63972
                ],
                [
                    0.01228,
                    -1.48366,
                    0.03308
                ],
                [
                    -0.55255,
                    -0.01254,
                    -2.50052
                ]
            ],
            [
                [
                    -1.74488,
                    0.39867,
                    -0.16932
                ],
                [
                    0.40317,
                    -2.20793,
                    0.17873
                ],
                [
                    -0.19903,
                    0.19823,
                    -1.72118
                ]
            ]
        ]
    },
    "band_gap": 4.3967,
    "is_direct": true,
    "formula": "BaLiBO3"
}