{
    "mp_id": "mp-6694",
    "nelements": 4,
    "nsites": 30,
    "elements": [
        "Cs",
        "O",
        "Si",
        "Zr"
    ],
    "structure": {
        "@module": "pymatgen.core.structure",
        "@class": "Structure",
        "charge": null,
        "lattice": {
            "matrix": [
                [
                    7.22911956,
                    0.0,
                    0.0
                ],
                [
                    -3.61455978,
                    6.26060037,
                    0.0
                ],
                [
                    0.0,
                    0.0,
                    10.34720826
                ]
            ],
            "a": 7.22911956,
            "b": 7.229118853362268,
            "c": 10.34720826,
            "alpha": 90.0,
            "beta": 90.0,
            "gamma": 120.00000323350453,
            "volume": 468.3004556045552
        },
        "sites": [
            {
                "species": [
                    {
                        "element": "Cs",
                        "occu": 1
                    }
                ],
                "abc": [
                    0.333333,
                    0.666667,
                    0.43803655
                ],
                "xyz": [
                    -3.6145597803738383e-06,
                    4.17373566686679,
                    4.532455408341903
                ],
                "label": "Cs",
                "properties": {}
            },
            {
                "species": [
                    {
                        "element": "Cs",
                        "occu": 1
                    }
                ],
                "abc": [
                    0.666667,
                    0.333333,
                    0.93803655
                ],
                "xyz": [
                    3.6145633945597804,
                    2.0868647031332097,
                    9.706059538341902
                ],
                "label": "Cs",
                "properties": {}
            },
            {
                "species": [
                    {
                        "element": "Cs",
                        "occu": 1
                    }
                ],
                "abc": [
                    0.666667,
                    0.333333,
                    0.56196345
                ],
                "xyz": [
                    3.6145633945597804,
                    2.0868647031332097,
                    5.814752851658097
                ],
                "label": "Cs",
                "properties": {}
            },
            {
                "species": [
                    {
                        "element": "Cs",
                        "occu": 1
                    }
                ],
                "abc": [
                    0.333333,
                    0.666667,
                    0.06196345
                ],
                "xyz": [
                    -3.6145597803738383e-06,
                    4.17373566686679,
                    0.6411487216580971
                ],
                "label": "Cs",
                "properties": {}
            },
            {
                "species": [
                    {
                        "element": "Zr",
                        "occu": 1
                    }
                ],
                "abc": [
                    0.0,
                    0.0,
                    0.5
                ],
                "xyz": [
                    0.0,
                    0.0,
                    5.17360413
                ],
                "label": "Zr",
                "properties": {}
            },
            {
                "species": [
                    {
                        "element": "Zr",
                        "occu": 1
                    }
                ],
                "abc": [
                    0.0,
                    0.0,
                    0.0
                ],
                "xyz": [
                    0.0,
                    0.0,
                    0.0
                ],
                "label": "Zr",
                "properties": {}
            },
            {
                "species": [
                    {
                        "element": "Si",
                        "occu": 1
                    }
                ],
                "abc": [
                    0.61103322,
                    0.75853972,
                    0.75
                ],
                "xyz": [
                    1.6754450390673221,
                    4.748914051691696,
                    7.760406195
                ],
                "label": "Si",
                "properties": {}
            },
            {
                "species": [
                    {
                        "element": "Si",
                        "occu": 1
                    }
                ],
                "abc": [
                    0.8524935,
                    0.61103322,
                    0.25
                ],
                "xyz": [
                    3.954161334366968,
                    3.8254348032142915,
                    2.586802065
                ],
                "label": "Si",
                "properties": {}
            },
            {
                "species": [
                    {
                        "element": "Si",
                        "occu": 1
                    }
                ],
                "abc": [
                    0.75853972,
                    0.1475065,
                    0.25
                ],
                "xyz": [
                    4.950403264700353,
                    0.923479248477405,
                    2.586802065
                ],
                "label": "Si",
                "properties": {}
            },
            {
                "species": [
                    {
                        "element": "Si",
                        "occu": 1
                    }
                ],
                "abc": [
                    0.24146028,
                    0.8524935,
                    0.75
                ],
                "xyz": [
                    -1.335843484700353,
                    5.337121121522594,
                    7.760406195
                ],
                "label": "Si",
                "properties": {}
            },
            {
                "species": [
                    {
                        "element": "Si",
                        "occu": 1
                    }
                ],
                "abc": [
                    0.1475065,
                    0.38896678,
                    0.75
                ],
                "xyz": [
                    -0.3396015543669684,
                    2.4351655667857086,
                    7.760406195
                ],
                "label": "Si",
                "properties": {}
            },
            {
                "species": [
                    {
                        "element": "Si",
                        "occu": 1
                    }
                ],
                "abc": [
                    0.38896678,
                    0.24146028,
                    0.25
                ],
                "xyz": [
                    1.9391147409326783,
                    1.5116863183083036,
                    2.586802065
                ],
                "label": "Si",
                "properties": {}
            },
            {
                "species": [
                    {
                        "element": "O",
                        "occu": 1
                    }
                ],
                "abc": [
                    0.25895705,
                    0.2070054,
                    0.38263627
                ],
                "xyz": [
                    1.123798082272086,
                    1.295978083831998,
                    3.9592171735195905
                ],
                "label": "O",
                "properties": {}
            },
            {
                "species": [
                    {
                        "element": "O",
                        "occu": 1
                    }
                ],
                "abc": [
                    0.05195065,
                    0.25895705,
                    0.88263627
                ],
                "xyz": [
                    -0.560458277607735,
                    1.6212266030441085,
                    9.13282130351959
                ],
                "label": "O",
                "properties": {}
            },
            {
                "species": [
                    {
                        "element": "O",
                        "occu": 1
                    }
                ],
                "abc": [
                    0.2070054,
                    0.94804935,
                    0.88263627
                ],
                "xyz": [
                    -1.9303142637995192,
                    5.935358111388259,
                    9.13282130351959
                ],
                "label": "O",
                "properties": {}
            },
            {
                "species": [
                    {
                        "element": "O",
                        "occu": 1
                    }
                ],
                "abc": [
                    0.7929946,
                    0.05195065,
                    0.38263627
                ],
                "xyz": [
                    5.544874043799519,
                    0.3252422586117405,
                    3.9592171735195905
                ],
                "label": "O",
                "properties": {}
            },
            {
                "species": [
                    {
                        "element": "O",
                        "occu": 1
                    }
                ],
                "abc": [
                    0.94804935,
                    0.74104295,
                    0.38263627
                ],
                "xyz": [
                    4.175018057607735,
                    4.639373766955891,
                    3.9592171735195905
                ],
                "label": "O",
                "properties": {}
            },
            {
                "species": [
                    {
                        "element": "O",
                        "occu": 1
                    }
                ],
                "abc": [
                    0.74104295,
                    0.7929946,
                    0.88263627
                ],
                "xyz": [
                    2.4907616977279137,
                    4.964622286168002,
                    9.13282130351959
                ],
                "label": "O",
                "properties": {}
            },
            {
                "species": [
                    {
                        "element": "O",
                        "occu": 1
                    }
                ],
                "abc": [
                    0.74104295,
                    0.7929946,
                    0.61736373
                ],
                "xyz": [
                    2.4907616977279137,
                    4.964622286168002,
                    6.38799108648041
                ],
                "label": "O",
                "properties": {}
            },
            {
                "species": [
                    {
                        "element": "O",
                        "occu": 1
                    }
                ],
                "abc": [
                    0.94804935,
                    0.74104295,
                    0.11736373
                ],
                "xyz": [
                    4.175018057607735,
                    4.639373766955891,
                    1.2143869564804097
                ],
                "label": "O",
                "properties": {}
            },
            {
                "species": [
                    {
                        "element": "O",
                        "occu": 1
                    }
                ],
                "abc": [
                    0.7929946,
                    0.05195065,
                    0.11736373
                ],
                "xyz": [
                    5.544874043799519,
                    0.3252422586117405,
                    1.2143869564804097
                ],
                "label": "O",
                "properties": {}
            },
            {
                "species": [
                    {
                        "element": "O",
                        "occu": 1
                    }
                ],
                "abc": [
                    0.2070054,
                    0.94804935,
                    0.61736373
                ],
                "xyz": [
                    -1.9303142637995192,
                    5.935358111388259,
                    6.38799108648041
                ],
                "label": "O",
                "properties": {}
            },
            {
                "species": [
                    {
                        "element": "O",
                        "occu": 1
                    }
                ],
                "abc": [
                    0.05195065,
                    0.25895705,
                    0.61736373
                ],
                "xyz": [
                    -0.560458277607735,
                    1.6212266030441085,
                    6.38799108648041
                ],
                "label": "O",
                "properties": {}
            },
            {
                "species": [
                    {
                        "element": "O",
                        "occu": 1
                    }
                ],
                "abc": [
                    0.25895705,
                    0.2070054,
                    0.11736373
                ],
                "xyz": [
                    1.123798082272086,
                    1.295978083831998,
                    1.2143869564804097
                ],
                "label": "O",
                "properties": {}
            },
            {
                "species": [
                    {
                        "element": "O",
                        "occu": 1
                    }
                ],
                "abc": [
                    0.50531523,
                    0.09330491,
                    0.25
                ],
                "xyz": [
                    3.3157280381963794,
                    0.5841447540688167,
                    2.586802065
                ],
                "label": "O",
                "properties": {}
            },
            {
                "species": [
                    {
                        "element": "O",
                        "occu": 1
                    }
                ],
                "abc": [
                    0.41201033,
                    0.50531523,
                    0.75
                ],
                "xyz": [
                    1.1519798289456051,
                    3.163576715904635,
                    7.760406195
                ],
                "label": "O",
                "properties": {}
            },
            {
                "species": [
                    {
                        "element": "O",
                        "occu": 1
                    }
                ],
                "abc": [
                    0.09330491,
                    0.58798967,
                    0.75
                ],
                "xyz": [
                    -1.450811462312433,
                    3.6811683455581776,
                    7.760406195
                ],
                "label": "O",
                "properties": {}
            },
            {
                "species": [
                    {
                        "element": "O",
                        "occu": 1
                    }
                ],
                "abc": [
                    0.90669509,
                    0.41201033,
                    0.25
                ],
                "xyz": [
                    5.065371242312434,
                    2.579432024441822,
                    2.586802065
                ],
                "label": "O",
                "properties": {}
            },
            {
                "species": [
                    {
                        "element": "O",
                        "occu": 1
                    }
                ],
                "abc": [
                    0.58798967,
                    0.49468477,
                    0.25
                ],
                "xyz": [
                    2.462579951054395,
                    3.0970236540953646,
                    2.586802065
                ],
                "label": "O",
                "properties": {}
            },
            {
                "species": [
                    {
                        "element": "O",
                        "occu": 1
                    }
                ],
                "abc": [
                    0.49468477,
                    0.90669509,
                    0.75
                ],
                "xyz": [
                    0.2988317418036206,
                    5.676455615931183,
                    7.760406195
                ],
                "label": "O",
                "properties": {}
            }
        ]
    },
    "spacegroup": {
        "source": "spglib",
        "symbol": "P6_3/m",
        "number": 176,
        "point_group": "6/m",
        "crystal_system": "hexagonal",
        "hall": "-P 6c"
    },
    "dielectric": {
        "epsilon_ionic": [
            [
                5.78762764,
                -0.00038361,
                0.0
            ],
            [
                -0.00038361,
                5.78729045,
                0.0
            ],
            [
                0.0,
                0.0,
                4.81775622
            ]
        ],
        "epsilon_ionic_avg": 5.46422477,
        "epsilon_ionic_eig": [
            5.787878068753653,
            5.787040021246348,
            4.81775622
        ],
        "epsilon_electronic": [
            [
                2.98635539,
                -1.24e-06,
                0.0
            ],
            [
                7.7e-07,
                2.98635567,
                -0.0
            ],
            [
                0.0,
                0.0,
                3.12650787
            ]
        ],
        "epsilon_electronic_avg": 3.0330729766666664,
        "epsilon_electronic_eig": [
            2.98635553,
            2.98635553,
            3.12650787
        ]
    },
    "phonon": {
        "lowest_freq": -0.05108266292582888,
        "frequency": [
            -0.05108266292582888,
            -0.047477388146697753,
            -0.04747738371966141,
            1.5843791483039609,
            1.584379294847239,
            1.6612900256290037,
            1.9025521523291447,
            1.9025523257489174,
            1.983465868235281,
            1.9834660530633568,
            2.1495341029479156,
            2.274294497333982,
            2.2888067120255062,
            2.329008160123144,
            2.3290083804917376,
            3.2153593516716152,
            3.2153594466843733,
            3.9903496318318927,
            3.9903497727018267,
            4.240792456257454,
            4.279317423369709,
            4.358332180612512,
            4.507196151600941,
            4.507196547439245,
            4.986812823059195,
            4.986812921077764,
            5.142090166029363,
            5.576280049361276,
            5.5762802027611125,
            5.710229270376714,
            5.710229291776917,
            6.535778296746646,
            6.535778708082716,
            6.839979133786521,
            7.646275528643261,
            7.711720420477547,
            8.055393155462065,
            8.055393534711284,
            8.793904047824649,
            8.793904311848591,
            9.036163438401617,
            9.552811753757137,
            9.91149698397622,
            9.911497366179026,
            10.10734639274162,
            10.10734673126784,
            10.123102059658782,
            10.397862718473645,
            10.397862941769654,
            10.434831066421879,
            10.650626770455894,
            10.650626873717478,
            12.094452868701032,
            12.094453161711545,
            12.611297603340637,
            12.611297855273607,
            12.825929521460846,
            13.444703471000151,
            14.7450113127549,
            14.7450115779566,
            15.310641704129313,
            15.310642151086647,
            15.870419314565941,
            16.046084762927165,
            16.197458090565966,
            16.797579903766223,
            18.097677660713728,
            18.418218951712984,
            20.96349239088253,
            20.963492915509132,
            20.967598416107933,
            20.9675989406318,
            27.437694532223816,
            27.43769502213404,
            27.502101368193838,
            27.50210190138974,
            27.543660181983043,
            27.55964095277887,
            28.952937769610156,
            29.289855851317796,
            29.289856101643505,
            29.311844385297317,
            29.311844593745583,
            29.466845546734202,
            29.466846956726368,
            29.555422820836103,
            29.555424267948613,
            29.773427431477913,
            31.167427836367256,
            33.87416034726187
        ]
    },
    "born_effective_charge": {
        "avg_abs_trace": 2.3983231111111114,
        "tensors": [
            [
                [
                    1.47226,
                    0.00387,
                    6e-05
                ],
                [
                    -0.00394,
                    1.4724,
                    0.00013
                ],
                [
                    -0.0,
                    0.0,
                    1.18665
                ]
            ],
            [
                [
                    1.47241,
                    0.00379,
                    -0.0001
                ],
                [
                    -0.00404,
                    1.47216,
                    -0.0002
                ],
                [
                    -0.0,
                    0.0,
                    1.18665
                ]
            ],
            [
                [
                    1.47241,
                    0.00379,
                    0.0001
                ],
                [
                    -0.00404,
                    1.47216,
                    0.0002
                ],
                [
                    -0.0,
                    0.0,
                    1.18667
                ]
            ],
            [
                [
                    1.47226,
                    0.00387,
                    -6e-05
                ],
                [
                    -0.00394,
                    1.4724,
                    -0.00013
                ],
                [
                    -0.0,
                    0.0,
                    1.18667
                ]
            ],
            [
                [
                    4.93773,
                    0.32435,
                    0.00063
                ],
                [
                    -0.3247,
                    4.9373,
                    0.00078
                ],
                [
                    -0.0,
                    0.0,
                    5.52575
                ]
            ],
            [
                [
                    4.93773,
                    0.32435,
                    -0.00063
                ],
                [
                    -0.3247,
                    4.9373,
                    -0.00078
                ],
                [
                    -0.0,
                    0.0,
                    5.52575
                ]
            ],
            [
                [
                    3.61595,
                    0.18353,
                    0.0
                ],
                [
                    0.48083,
                    2.90392,
                    0.0
                ],
                [
                    -1e-05,
                    -0.0,
                    3.57984
                ]
            ],
            [
                [
                    2.795,
                    -0.00827,
                    0.0
                ],
                [
                    0.29399,
                    3.72687,
                    0.0
                ],
                [
                    -0.0,
                    -1e-05,
                    3.57984
                ]
            ],
            [
                [
                    3.36874,
                    -0.62612,
                    0.0
                ],
                [
                    -0.32342,
                    3.14943,
                    0.0
                ],
                [
                    -1e-05,
                    1e-05,
                    3.57984
                ]
            ],
            [
                [
                    3.37038,
                    -0.62643,
                    0.0
                ],
                [
                    -0.32132,
                    3.15269,
                    0.0
                ],
                [
                    1e-05,
                    -1e-05,
                    3.57984
                ]
            ],
            [
                [
                    2.79166,
                    -0.00886,
                    0.0
                ],
                [
                    0.29563,
                    3.72483,
                    0.0
                ],
                [
                    0.0,
                    1e-05,
                    3.57984
                ]
            ],
            [
                [
                    3.61666,
                    0.17957,
                    0.0
                ],
                [
                    0.48299,
                    2.90271,
                    0.0
                ],
                [
                    1e-05,
                    0.0,
                    3.57984
                ]
            ],
            [
                [
                    -1.96372,
                    -0.58158,
                    0.79682
                ],
                [
                    -0.54578,
                    -1.75239,
                    0.54429
                ],
                [
                    0.82387,
                    0.61332,
                    -2.44641
                ]
            ],
            [
                [
                    -1.31684,
                    0.17327,
                    -0.07333
                ],
                [
                    0.20829,
                    -2.3988,
                    0.96215
                ],
                [
                    -0.11922,
                    1.02015,
                    -2.44641
                ]
            ],
            [
                [
                    -2.29383,
                    0.35573,
                    0.87055
                ],
                [
                    0.39093,
                    -1.4225,
                    -0.41754
                ],
                [
                    0.94308,
                    -0.40683,
                    -2.44641
                ]
            ],
            [
                [
                    -2.29345,
                    0.35538,
                    -0.86994
                ],
                [
                    0.39112,
                    -1.42231,
                    0.41776
                ],
                [
                    -0.94308,
                    0.40683,
                    -2.44641
                ]
            ],
            [
                [
                    -1.31717,
                    0.1728,
                    0.07279
                ],
                [
                    0.20828,
                    -2.39933,
                    -0.96267
                ],
                [
                    0.11922,
                    -1.02015,
                    -2.44641
                ]
            ],
            [
                [
                    -1.9637,
                    -0.58185,
                    -0.79683
                ],
                [
                    -0.54543,
                    -1.75236,
                    -0.54398
                ],
                [
                    -0.82387,
                    -0.61332,
                    -2.44641
                ]
            ],
            [
                [
                    -1.9637,
                    -0.58185,
                    0.79683
                ],
                [
                    -0.54543,
                    -1.75236,
                    0.54398
                ],
                [
                    0.8239,
                    0.61336,
                    -2.44643
                ]
            ],
            [
                [
                    -1.31717,
                    0.1728,
                    -0.07279
                ],
                [
                    0.20828,
                    -2.39933,
                    0.96267
                ],
                [
                    -0.11924,
                    1.0202,
                    -2.44643
                ]
            ],
            [
                [
                    -2.29345,
                    0.35538,
                    0.86994
                ],
                [
                    0.39112,
                    -1.42231,
                    -0.41776
                ],
                [
                    0.94313,
                    -0.40684,
                    -2.44643
                ]
            ],
            [
                [
                    -2.29383,
                    0.35573,
                    -0.87055
                ],
                [
                    0.39093,
                    -1.4225,
                    0.41754
                ],
                [
                    -0.94313,
                    0.40684,
                    -2.44643
                ]
            ],
            [
                [
                    -1.31684,
                    0.17327,
                    0.07333
                ],
                [
                    0.20829,
                    -2.3988,
                    -0.96215
                ],
                [
                    0.11924,
                    -1.0202,
                    -2.44643
                ]
            ],
            [
                [
                    -1.96372,
                    -0.58158,
                    -0.79682
                ],
                [
                    -0.54578,
                    -1.75239,
                    -0.54429
                ],
                [
                    -0.8239,
                    -0.61336,
                    -2.44643
                ]
            ],
            [
                [
                    -2.87515,
                    0.34936,
                    0.0
                ],
                [
                    0.19637,
                    -1.46682,
                    0.0
                ],
                [
                    1e-05,
                    1e-05,
                    -1.32002
                ]
            ],
            [
                [
                    -2.05422,
                    -0.671,
                    0.0
                ],
                [
                    -0.82211,
                    -2.28848,
                    0.0
                ],
                [
                    -1e-05,
                    1e-05,
                    -1.32002
                ]
            ],
            [
                [
                    -1.58259,
                    0.54855,
                    0.0
                ],
                [
                    0.39704,
                    -2.75962,
                    0.0
                ],
                [
                    2e-05,
                    0.0,
                    -1.32002
                ]
            ],
            [
                [
                    -1.58374,
                    0.5499,
                    0.0
                ],
                [
                    0.39692,
                    -2.75894,
                    0.0
                ],
                [
                    -2e-05,
                    -0.0,
                    -1.32002
                ]
            ],
            [
                [
                    -2.05564,
                    -0.66906,
                    0.0
                ],
                [
                    -0.82225,
                    -2.28709,
                    0.0
                ],
                [
                    1e-05,
                    -1e-05,
                    -1.32002
                ]
            ],
            [
                [
                    -2.87444,
                    0.3473,
                    0.0
                ],
                [
                    0.19585,
                    -1.46785,
                    0.0
                ],
                [
                    -1e-05,
                    -1e-05,
                    -1.32002
                ]
            ]
        ]
    },
    "band_gap": 5.0202,
    "is_direct": false,
    "formula": "Cs2Zr(SiO3)3"
}