{
    "mp_id": "mp-6109",
    "nelements": 4,
    "nsites": 16,
    "elements": [
        "Ca",
        "O",
        "Si",
        "Ti"
    ],
    "structure": {
        "@module": "pymatgen.core.structure",
        "@class": "Structure",
        "charge": null,
        "lattice": {
            "matrix": [
                [
                    3.29448693,
                    -4.36306314,
                    5.509e-05
                ],
                [
                    3.29448693,
                    4.36306314,
                    5.509e-05
                ],
                [
                    -2.8616581,
                    0.0,
                    6.47870099
                ]
            ],
            "a": 5.467171489774434,
            "b": 5.467171489774434,
            "c": 7.082559819664257,
            "alpha": 104.09112512274295,
            "beta": 104.09112512274295,
            "gamma": 105.8881304071738,
            "volume": 186.25177776566173
        },
        "sites": [
            {
                "species": [
                    {
                        "element": "Ca",
                        "occu": 1
                    }
                ],
                "abc": [
                    0.16883635,
                    0.83116365,
                    0.25
                ],
                "xyz": [
                    2.5790724050000007,
                    2.8897758292457225,
                    1.6197303375
                ],
                "label": "Ca",
                "properties": {}
            },
            {
                "species": [
                    {
                        "element": "Ca",
                        "occu": 1
                    }
                ],
                "abc": [
                    0.83116365,
                    0.16883635,
                    0.75
                ],
                "xyz": [
                    1.1482433550000004,
                    -2.8897758292457225,
                    4.8590808325
                ],
                "label": "Ca",
                "properties": {}
            },
            {
                "species": [
                    {
                        "element": "Ti",
                        "occu": 1
                    }
                ],
                "abc": [
                    0.5,
                    0.5,
                    0.5
                ],
                "xyz": [
                    1.86365788,
                    0.0,
                    3.239405585
                ],
                "label": "Ti",
                "properties": {}
            },
            {
                "species": [
                    {
                        "element": "Ti",
                        "occu": 1
                    }
                ],
                "abc": [
                    0.5,
                    0.5,
                    0.0
                ],
                "xyz": [
                    3.29448693,
                    0.0,
                    5.509e-05
                ],
                "label": "Ti",
                "properties": {}
            },
            {
                "species": [
                    {
                        "element": "Si",
                        "occu": 1
                    }
                ],
                "abc": [
                    0.81856079,
                    0.18143921,
                    0.25
                ],
                "xyz": [
                    2.5790724050000007,
                    -2.7798016813965614,
                    1.6197303375
                ],
                "label": "Si",
                "properties": {}
            },
            {
                "species": [
                    {
                        "element": "Si",
                        "occu": 1
                    }
                ],
                "abc": [
                    0.18143921,
                    0.81856079,
                    0.75
                ],
                "xyz": [
                    1.1482433550000004,
                    2.7798016813965614,
                    4.8590808325
                ],
                "label": "Si",
                "properties": {}
            },
            {
                "species": [
                    {
                        "element": "O",
                        "occu": 1
                    }
                ],
                "abc": [
                    0.81765521,
                    0.39283273,
                    0.11926743
                ],
                "xyz": [
                    3.646634090126941,
                    -1.8535273035313873,
                    0.7727647025963703
                ],
                "label": "O",
                "properties": {}
            },
            {
                "species": [
                    {
                        "element": "O",
                        "occu": 1
                    }
                ],
                "abc": [
                    0.60716727,
                    0.18234479,
                    0.38073257
                ],
                "xyz": [
                    1.5115107198730593,
                    -1.8535273035313873,
                    2.4666959724036297
                ],
                "label": "O",
                "properties": {}
            },
            {
                "species": [
                    {
                        "element": "O",
                        "occu": 1
                    }
                ],
                "abc": [
                    0.18234479,
                    0.60716727,
                    0.88073257
                ],
                "xyz": [
                    0.08068166987305903,
                    1.8535273035313873,
                    5.70604646740363
                ],
                "label": "O",
                "properties": {}
            },
            {
                "species": [
                    {
                        "element": "O",
                        "occu": 1
                    }
                ],
                "abc": [
                    0.39283273,
                    0.81765521,
                    0.61926743
                ],
                "xyz": [
                    2.2158050401269413,
                    1.8535273035313873,
                    4.01211519759637
                ],
                "label": "O",
                "properties": {}
            },
            {
                "species": [
                    {
                        "element": "O",
                        "occu": 1
                    }
                ],
                "abc": [
                    0.88133284,
                    0.75284553,
                    0.5875494
                ],
                "xyz": [
                    3.702413781593564,
                    -0.5605982462187535,
                    3.8066469063403097
                ],
                "label": "O",
                "properties": {}
            },
            {
                "species": [
                    {
                        "element": "O",
                        "occu": 1
                    }
                ],
                "abc": [
                    0.24715447,
                    0.11866716,
                    0.9124506
                ],
                "xyz": [
                    -1.4059270715935641,
                    -0.5605982462187533,
                    5.911514758659691
                ],
                "label": "O",
                "properties": {}
            },
            {
                "species": [
                    {
                        "element": "O",
                        "occu": 1
                    }
                ],
                "abc": [
                    0.11866716,
                    0.24715447,
                    0.4124506
                ],
                "xyz": [
                    0.024901978406435932,
                    0.5605982462187533,
                    2.6721642636596905
                ],
                "label": "O",
                "properties": {}
            },
            {
                "species": [
                    {
                        "element": "O",
                        "occu": 1
                    }
                ],
                "abc": [
                    0.75284553,
                    0.88133284,
                    0.0875494
                ],
                "xyz": [
                    5.133242831593565,
                    0.5605982462187535,
                    0.5672964113403093
                ],
                "label": "O",
                "properties": {}
            },
            {
                "species": [
                    {
                        "element": "O",
                        "occu": 1
                    }
                ],
                "abc": [
                    0.57489144,
                    0.42510856,
                    0.75
                ],
                "xyz": [
                    1.148243355,
                    -0.6535121627310434,
                    4.8590808325
                ],
                "label": "O",
                "properties": {}
            },
            {
                "species": [
                    {
                        "element": "O",
                        "occu": 1
                    }
                ],
                "abc": [
                    0.42510856,
                    0.57489144,
                    0.25
                ],
                "xyz": [
                    2.5790724050000002,
                    0.6535121627310434,
                    1.6197303375
                ],
                "label": "O",
                "properties": {}
            }
        ]
    },
    "spacegroup": {
        "source": "spglib",
        "symbol": "C2/c",
        "number": 15,
        "point_group": "2/m",
        "crystal_system": "monoclinic",
        "hall": "-C 2yc"
    },
    "dielectric": {
        "epsilon_ionic": [
            [
                14.16984779,
                1e-08,
                -7.35085825
            ],
            [
                1e-08,
                7.75170497,
                -1e-08
            ],
            [
                -7.35085825,
                -1e-08,
                23.83151766
            ]
        ],
        "epsilon_ionic_avg": 15.251023473333339,
        "epsilon_ionic_eig": [
            27.796822968357297,
            10.204542481642717,
            7.7517049700000005
        ],
        "epsilon_electronic": [
            [
                4.19501233,
                0.0,
                -0.29039702
            ],
            [
                0.0,
                4.1455312,
                0.0
            ],
            [
                -0.29039696,
                0.0,
                4.92697389
            ]
        ],
        "epsilon_electronic_avg": 4.422505806666667,
        "epsilon_electronic_eig": [
            4.093796852383923,
            5.028189367616077,
            4.1455312
        ]
    },
    "phonon": {
        "lowest_freq": -0.04326173972473158,
        "frequency": [
            -0.04326173972473158,
            -0.03040831237190956,
            -0.0270304402867456,
            1.8802192073117265,
            2.4590902038696885,
            4.145034986511405,
            4.931342084672465,
            4.977723535746476,
            5.084730550239152,
            5.460751102480032,
            6.531129125040842,
            6.572986418950482,
            7.016851955839955,
            7.750998399600044,
            7.919640049806198,
            8.45769457704557,
            8.631142990221987,
            9.204275131722333,
            9.25757533746214,
            9.44681561472315,
            9.483830410450073,
            9.663548236015636,
            10.32808026328659,
            10.33881851287797,
            10.440466507739174,
            10.58025660897505,
            10.767787687457053,
            11.989654877801883,
            12.545626846963145,
            13.751336976215669,
            14.197126235980978,
            14.729902182804665,
            15.526532167595816,
            16.193964431317863,
            16.202610924459595,
            16.40520112335494,
            16.635492887719717,
            17.016456127856245,
            18.482470215103024,
            22.08606911085682,
            24.940451730933066,
            25.321031027450484,
            25.487189685189193,
            25.698118786605487,
            26.032266929747284,
            26.561631922323073,
            26.88890841919168,
            28.88387715454871
        ]
    },
    "born_effective_charge": {
        "avg_abs_trace": 3.010836875,
        "tensors": [
            [
                [
                    2.50496,
                    -0.0001,
                    0.14704
                ],
                [
                    0.0,
                    2.77748,
                    0.0
                ],
                [
                    0.20794,
                    0.00017,
                    2.18218
                ]
            ],
            [
                [
                    2.50496,
                    0.0001,
                    0.14704
                ],
                [
                    0.0,
                    2.77766,
                    0.0
                ],
                [
                    0.20794,
                    -0.00017,
                    2.18218
                ]
            ],
            [
                [
                    5.44294,
                    0.16865,
                    -1.35797
                ],
                [
                    -0.39772,
                    4.66033,
                    -0.12369
                ],
                [
                    -0.76115,
                    -1.36131,
                    7.70039
                ]
            ],
            [
                [
                    5.44294,
                    -0.16865,
                    -1.35797
                ],
                [
                    0.39772,
                    4.66033,
                    0.12369
                ],
                [
                    -0.76115,
                    1.36131,
                    7.70039
                ]
            ],
            [
                [
                    3.34362,
                    1e-05,
                    0.87413
                ],
                [
                    0.0,
                    4.05497,
                    0.0
                ],
                [
                    -0.32581,
                    -2e-05,
                    3.46311
                ]
            ],
            [
                [
                    3.34362,
                    -1e-05,
                    0.87413
                ],
                [
                    0.0,
                    4.05493,
                    0.0
                ],
                [
                    -0.32581,
                    2e-05,
                    3.46311
                ]
            ],
            [
                [
                    -1.8247,
                    -0.25717,
                    0.11932
                ],
                [
                    -0.18497,
                    -2.71793,
                    0.74332
                ],
                [
                    0.18775,
                    0.73532,
                    -1.97615
                ]
            ],
            [
                [
                    -1.82468,
                    0.25743,
                    0.11936
                ],
                [
                    0.18497,
                    -2.71793,
                    -0.74332
                ],
                [
                    0.1876,
                    -0.73579,
                    -1.97626
                ]
            ],
            [
                [
                    -1.82468,
                    -0.25743,
                    0.11936
                ],
                [
                    -0.18514,
                    -2.7181,
                    0.74342
                ],
                [
                    0.1876,
                    0.73579,
                    -1.97626
                ]
            ],
            [
                [
                    -1.8247,
                    0.25717,
                    0.11932
                ],
                [
                    0.18514,
                    -2.7181,
                    -0.74342
                ],
                [
                    0.18775,
                    -0.73532,
                    -1.97615
                ]
            ],
            [
                [
                    -2.87021,
                    0.66019,
                    -0.93686
                ],
                [
                    0.71367,
                    -2.08204,
                    0.37372
                ],
                [
                    -0.72046,
                    0.42865,
                    -1.93273
                ]
            ],
            [
                [
                    -2.87005,
                    -0.66018,
                    -0.93692
                ],
                [
                    -0.71367,
                    -2.08204,
                    -0.37372
                ],
                [
                    -0.7209,
                    -0.42874,
                    -1.93288
                ]
            ],
            [
                [
                    -2.87005,
                    0.66018,
                    -0.93692
                ],
                [
                    0.71366,
                    -2.08207,
                    0.37353
                ],
                [
                    -0.7209,
                    0.42874,
                    -1.93288
                ]
            ],
            [
                [
                    -2.87021,
                    -0.66019,
                    -0.93686
                ],
                [
                    -0.71366,
                    -2.08207,
                    -0.37353
                ],
                [
                    -0.72046,
                    -0.42865,
                    -1.93273
                ]
            ],
            [
                [
                    -1.90189,
                    -0.00014,
                    1.9719
                ],
                [
                    0.0,
                    -1.89273,
                    0.0
                ],
                [
                    1.94502,
                    0.00033,
                    -5.52764
                ]
            ],
            [
                [
                    -1.90189,
                    0.00014,
                    1.9719
                ],
                [
                    0.0,
                    -1.89268,
                    0.0
                ],
                [
                    1.94502,
                    -0.00033,
                    -5.52764
                ]
            ]
        ]
    },
    "band_gap": 3.2156000000000002,
    "is_direct": false,
    "formula": "CaTiSiO5"
}