{
    "mp_id": "mp-676305",
    "nelements": 3,
    "nsites": 30,
    "elements": [
        "Mg",
        "O",
        "Sb"
    ],
    "structure": {
        "@module": "pymatgen.core.structure",
        "@class": "Structure",
        "charge": null,
        "lattice": {
            "matrix": [
                [
                    5.19482021,
                    8.727e-05,
                    -0.00014199
                ],
                [
                    -0.06727593,
                    5.57215585,
                    -9.783e-05
                ],
                [
                    -2.59108877,
                    -1.72180295,
                    11.31589296
                ]
            ],
            "a": 5.194820212673548,
            "b": 5.57256196708635,
            "c": 11.73574794782277,
            "alpha": 98.28256751929635,
            "beta": 102.75689539196784,
            "gamma": 90.69076962602995,
            "volume": 327.55089847762633
        },
        "sites": [
            {
                "species": [
                    {
                        "element": "Mg",
                        "occu": 1
                    }
                ],
                "abc": [
                    0.22440226,
                    0.48387614,
                    0.42053392
                ],
                "xyz": [
                    0.043535460578285834,
                    1.9721763037305853,
                    4.75863762428953
                ],
                "label": "Mg",
                "properties": {}
            },
            {
                "species": [
                    {
                        "element": "Mg",
                        "occu": 1
                    }
                ],
                "abc": [
                    0.6177092,
                    0.33145536,
                    0.23022411
                ],
                "xyz": [
                    2.590058162461202,
                    1.4505742789606153,
                    2.6050712507640887
                ],
                "label": "Mg",
                "properties": {}
            },
            {
                "species": [
                    {
                        "element": "Mg",
                        "occu": 1
                    }
                ],
                "abc": [
                    0.5359583,
                    0.84312823,
                    0.09649548
                ],
                "xyz": [
                    2.4774564181909793,
                    4.531942470049821,
                    1.0917739388500627
                ],
                "label": "Mg",
                "properties": {}
            },
            {
                "species": [
                    {
                        "element": "Mg",
                        "occu": 1
                    }
                ],
                "abc": [
                    0.11343282,
                    0.82981678,
                    0.23281049
                ],
                "xyz": [
                    -0.06979623596801043,
                    4.223024535914418,
                    2.6343612975034514
                ],
                "label": "Mg",
                "properties": {}
            },
            {
                "species": [
                    {
                        "element": "Mg",
                        "occu": 1
                    }
                ],
                "abc": [
                    0.88656718,
                    0.17018322,
                    0.76718951
                ],
                "xyz": [
                    2.6062517459680103,
                    -0.372584365914419,
                    8.681291842496549
                ],
                "label": "Mg",
                "properties": {}
            },
            {
                "species": [
                    {
                        "element": "Mg",
                        "occu": 1
                    }
                ],
                "abc": [
                    0.4640417,
                    0.15687177,
                    0.90350452
                ],
                "xyz": [
                    0.05899909180902041,
                    -0.6815023000498208,
                    10.223879201149938
                ],
                "label": "Mg",
                "properties": {}
            },
            {
                "species": [
                    {
                        "element": "Mg",
                        "occu": 1
                    }
                ],
                "abc": [
                    0.3822908,
                    0.66854464,
                    0.76977589
                ],
                "xyz": [
                    -0.05360265246120255,
                    2.3998658910393846,
                    8.710581889235911
                ],
                "label": "Mg",
                "properties": {}
            },
            {
                "species": [
                    {
                        "element": "Mg",
                        "occu": 1
                    }
                ],
                "abc": [
                    0.77559774,
                    0.51612386,
                    0.57946608
                ],
                "xyz": [
                    2.492920049421714,
                    1.8782638662694149,
                    6.55701551571047
                ],
                "label": "Mg",
                "properties": {}
            },
            {
                "species": [
                    {
                        "element": "Sb",
                        "occu": 1
                    }
                ],
                "abc": [
                    0.28579209,
                    0.96997669,
                    0.57342325
                ],
                "xyz": [
                    -0.06640810243983553,
                    4.417564385174242,
                    6.4886606453368785
                ],
                "label": "Sb",
                "properties": {}
            },
            {
                "species": [
                    {
                        "element": "Sb",
                        "occu": 1
                    }
                ],
                "abc": [
                    0.94309771,
                    0.6505586,
                    0.89384648
                ],
                "xyz": [
                    2.539420532646192,
                    2.0860687067838457,
                    10.1144735357611
                ],
                "label": "Sb",
                "properties": {}
            },
            {
                "species": [
                    {
                        "element": "Sb",
                        "occu": 1
                    }
                ],
                "abc": [
                    0.05690229,
                    0.3494414,
                    0.10615352
                ],
                "xyz": [
                    -0.002965022646191473,
                    1.7643714632161542,
                    1.2011796042389
                ],
                "label": "Sb",
                "properties": {}
            },
            {
                "species": [
                    {
                        "element": "Sb",
                        "occu": 1
                    }
                ],
                "abc": [
                    0.71420791,
                    0.03002331,
                    0.42657675
                ],
                "xyz": [
                    2.6028636124398346,
                    -0.5671242151742433,
                    4.826992494663121
                ],
                "label": "Sb",
                "properties": {}
            },
            {
                "species": [
                    {
                        "element": "O",
                        "occu": 1
                    }
                ],
                "abc": [
                    0.72222961,
                    0.90645647,
                    0.83290101
                ],
                "xyz": [
                    1.5327498187319928,
                    3.616888334982934,
                    9.424827447417107
                ],
                "label": "O",
                "properties": {}
            },
            {
                "species": [
                    {
                        "element": "O",
                        "occu": 1
                    }
                ],
                "abc": [
                    0.42425412,
                    0.64942109,
                    0.59597962
                ],
                "xyz": [
                    0.6159973684295341,
                    2.5925530825580494,
                    6.743917813553741
                ],
                "label": "O",
                "properties": {}
            },
            {
                "species": [
                    {
                        "element": "O",
                        "occu": 1
                    }
                ],
                "abc": [
                    0.98318695,
                    0.48461506,
                    0.26364797
                ],
                "xyz": [
                    4.391741214914457,
                    2.246486591794716,
                    2.983225195034941
                ],
                "label": "O",
                "properties": {}
            },
            {
                "species": [
                    {
                        "element": "O",
                        "occu": 1
                    }
                ],
                "abc": [
                    0.06287545,
                    0.23079957,
                    0.50297553
                ],
                "xyz": [
                    -0.9921548447103035,
                    0.4200319099616926,
                    5.691585752172189
                ],
                "label": "O",
                "properties": {}
            },
            {
                "species": [
                    {
                        "element": "O",
                        "occu": 1
                    }
                ],
                "abc": [
                    0.78078701,
                    0.97826039,
                    0.27072514
                ],
                "xyz": [
                    3.2887618917233814,
                    4.9849521495529805,
                    3.0632901386595104
                ],
                "label": "O",
                "properties": {}
            },
            {
                "species": [
                    {
                        "element": "O",
                        "occu": 1
                    }
                ],
                "abc": [
                    0.29313506,
                    0.81955178,
                    0.93269725
                ],
                "xyz": [
                    -0.9490535445199755,
                    2.960774950694711,
                    10.554180446088553
                ],
                "label": "O",
                "properties": {}
            },
            {
                "species": [
                    {
                        "element": "O",
                        "occu": 1
                    }
                ],
                "abc": [
                    0.35912484,
                    0.86362312,
                    0.4038237
                ],
                "xyz": [
                    0.7611448740476658,
                    4.116969123188124,
                    4.56949028352529
                ],
                "label": "O",
                "properties": {}
            },
            {
                "species": [
                    {
                        "element": "O",
                        "occu": 1
                    }
                ],
                "abc": [
                    0.87732547,
                    0.67310652,
                    0.05872862
                ],
                "xyz": [
                    4.360093147422088,
                    3.6496118861194797,
                    0.6643763561541783
                ],
                "label": "O",
                "properties": {}
            },
            {
                "species": [
                    {
                        "element": "O",
                        "occu": 1
                    }
                ],
                "abc": [
                    0.37307989,
                    0.58240571,
                    0.1661747
                ],
                "xyz": [
                    1.4683276677108976,
                    2.9591678540565383,
                    1.8803051674959217
                ],
                "label": "O",
                "properties": {}
            },
            {
                "species": [
                    {
                        "element": "O",
                        "occu": 1
                    }
                ],
                "abc": [
                    0.62692011,
                    0.41759429,
                    0.8338253
                ],
                "xyz": [
                    1.068127842289102,
                    0.891272315943461,
                    9.435347972504077
                ],
                "label": "O",
                "properties": {}
            },
            {
                "species": [
                    {
                        "element": "O",
                        "occu": 1
                    }
                ],
                "abc": [
                    0.12267453,
                    0.32689348,
                    0.94127138
                ],
                "xyz": [
                    -1.8236376374220873,
                    0.20082828388052,
                    10.651276783845821
                ],
                "label": "O",
                "properties": {}
            },
            {
                "species": [
                    {
                        "element": "O",
                        "occu": 1
                    }
                ],
                "abc": [
                    0.64087516,
                    0.13637688,
                    0.5961763
                ],
                "xyz": [
                    1.775310635952334,
                    -0.26652895318812386,
                    6.746162856474709
                ],
                "label": "O",
                "properties": {}
            },
            {
                "species": [
                    {
                        "element": "O",
                        "occu": 1
                    }
                ],
                "abc": [
                    0.70686494,
                    0.18044822,
                    0.06730275
                ],
                "xyz": [
                    3.485509054519975,
                    0.8896652193052881,
                    0.7614726939114468
                ],
                "label": "O",
                "properties": {}
            },
            {
                "species": [
                    {
                        "element": "O",
                        "occu": 1
                    }
                ],
                "abc": [
                    0.21921299,
                    0.02173961,
                    0.72927486
                ],
                "xyz": [
                    -0.7523063817233815,
                    -1.1345119795529812,
                    8.252363001340488
                ],
                "label": "O",
                "properties": {}
            },
            {
                "species": [
                    {
                        "element": "O",
                        "occu": 1
                    }
                ],
                "abc": [
                    0.93712455,
                    0.76920043,
                    0.49702447
                ],
                "xyz": [
                    3.5286103547103034,
                    3.4304082600383072,
                    5.62406738782781
                ],
                "label": "O",
                "properties": {}
            },
            {
                "species": [
                    {
                        "element": "O",
                        "occu": 1
                    }
                ],
                "abc": [
                    0.01681305,
                    0.51538494,
                    0.73635203
                ],
                "xyz": [
                    -1.8552857049144569,
                    1.603953578205284,
                    8.33242794496506
                ],
                "label": "O",
                "properties": {}
            },
            {
                "species": [
                    {
                        "element": "O",
                        "occu": 1
                    }
                ],
                "abc": [
                    0.57574588,
                    0.35057891,
                    0.40402038
                ],
                "xyz": [
                    1.920458141570466,
                    1.25788708744195,
                    4.571735326446258
                ],
                "label": "O",
                "properties": {}
            },
            {
                "species": [
                    {
                        "element": "O",
                        "occu": 1
                    }
                ],
                "abc": [
                    0.27777039,
                    0.09354353,
                    0.16709899
                ],
                "xyz": [
                    1.0037056912680065,
                    0.23355183501706533,
                    1.8908256925828941
                ],
                "label": "O",
                "properties": {}
            }
        ]
    },
    "spacegroup": {
        "source": "spglib",
        "symbol": "P-1",
        "number": 2,
        "point_group": "-1",
        "crystal_system": "triclinic",
        "hall": "-P 1"
    },
    "dielectric": {
        "epsilon_ionic": [
            [
                5.70414272,
                -0.28495889,
                -0.15630048
            ],
            [
                -0.28495889,
                6.91195924,
                0.60058376
            ],
            [
                -0.15630048,
                0.60058376,
                5.90727321
            ]
        ],
        "epsilon_ionic_avg": 6.174458389999998,
        "epsilon_ionic_eig": [
            7.26020378601029,
            5.652706532432289,
            5.610464851557414
        ],
        "epsilon_electronic": [
            [
                3.70561539,
                0.01507594,
                -0.00458745
            ],
            [
                0.01507701,
                3.55288508,
                -0.1161221
            ],
            [
                -0.00458807,
                -0.11612199,
                3.69296102
            ]
        ],
        "epsilon_electronic_avg": 3.6504871633333327,
        "epsilon_electronic_eig": [
            3.7037843455443524,
            3.7609038596801643,
            3.4867732847754813
        ]
    },
    "phonon": {
        "lowest_freq": -0.04903920333850644,
        "frequency": [
            -0.04903920333850644,
            -0.03563517599034558,
            -0.025415959424406165,
            2.94416903771886,
            3.0911842489361825,
            3.3055075301514947,
            3.895942699535501,
            4.520333394688975,
            4.5806319730095755,
            5.525405804463206,
            5.879995814993192,
            6.006005331710416,
            6.094344276961977,
            6.378918783593254,
            6.634414481985349,
            6.707737532792935,
            6.825348027106039,
            7.164007387734973,
            7.282651003254651,
            7.667279357222388,
            7.697083094258955,
            7.725658516897715,
            7.868900213505584,
            8.00312201544432,
            8.103363804290813,
            8.11331197920071,
            8.570161612454752,
            8.627267659374729,
            8.704916543436475,
            8.708205977915044,
            8.9089517872948,
            8.96716058459336,
            9.23528059339192,
            9.400782813193356,
            9.606957062201122,
            9.666512346415917,
            9.700361663027229,
            9.759732873086959,
            9.991319016049122,
            10.31584836378974,
            10.326738494199763,
            10.443151541090272,
            10.725223037298864,
            11.060562579178464,
            11.087378138915014,
            11.180037885213153,
            11.462126171046151,
            11.656910556924462,
            11.676148222899249,
            12.135366220164208,
            12.173612104985411,
            12.311956326425156,
            12.541910713823068,
            12.70559808885116,
            12.742191740488547,
            12.906471785641777,
            13.101269918747832,
            13.343040612060353,
            13.737832407385534,
            14.000845989873577,
            14.05911034894115,
            14.383394692808347,
            14.850500537628074,
            14.85196506406756,
            14.95360458923932,
            15.121641223019022,
            15.416727981135166,
            15.477428047473637,
            15.776419116785666,
            16.028516079912805,
            16.215745421237518,
            16.44264753581862,
            16.581837376206746,
            17.08372050101149,
            17.668375452271498,
            17.848068615463873,
            18.11162952367222,
            18.353539759248104,
            18.406325328476683,
            18.500220251152832,
            18.87749576326748,
            19.27775191386293,
            19.477093352415572,
            19.78361723816032,
            20.025660637478268,
            20.276551617885183,
            20.51709569304112,
            20.73194546623703,
            21.820531605901333,
            22.40929166473671
        ]
    },
    "born_effective_charge": {
        "avg_abs_trace": 2.272967777777778,
        "tensors": [
            [
                [
                    2.03508,
                    0.08919,
                    -0.15478
                ],
                [
                    -0.08899,
                    2.45437,
                    0.16434
                ],
                [
                    0.11002,
                    0.02806,
                    2.11518
                ]
            ],
            [
                [
                    2.19826,
                    0.00357,
                    -0.01554
                ],
                [
                    -0.03522,
                    1.75069,
                    -0.29028
                ],
                [
                    0.01761,
                    -0.27863,
                    1.96856
                ]
            ],
            [
                [
                    2.39283,
                    0.13851,
                    -0.06097
                ],
                [
                    -0.10876,
                    2.27934,
                    0.13786
                ],
                [
                    0.11598,
                    0.19025,
                    2.18068
                ]
            ],
            [
                [
                    1.85035,
                    -0.14613,
                    0.07207
                ],
                [
                    0.10382,
                    2.20883,
                    0.12399
                ],
                [
                    -0.1042,
                    0.22355,
                    2.27264
                ]
            ],
            [
                [
                    1.85034,
                    -0.14613,
                    0.07208
                ],
                [
                    0.10382,
                    2.20883,
                    0.124
                ],
                [
                    -0.10418,
                    0.22354,
                    2.27257
                ]
            ],
            [
                [
                    2.39284,
                    0.13851,
                    -0.06096
                ],
                [
                    -0.10876,
                    2.27935,
                    0.13787
                ],
                [
                    0.11595,
                    0.19024,
                    2.18064
                ]
            ],
            [
                [
                    2.19826,
                    0.00357,
                    -0.01552
                ],
                [
                    -0.03522,
                    1.75068,
                    -0.29026
                ],
                [
                    0.0176,
                    -0.27862,
                    1.96849
                ]
            ],
            [
                [
                    2.03509,
                    0.08919,
                    -0.15477
                ],
                [
                    -0.089,
                    2.45438,
                    0.16435
                ],
                [
                    0.11002,
                    0.02806,
                    2.11513
                ]
            ],
            [
                [
                    4.92554,
                    -0.07958,
                    -0.04631
                ],
                [
                    -0.1018,
                    3.65826,
                    -0.34857
                ],
                [
                    -0.03252,
                    -0.20266,
                    4.25163
                ]
            ],
            [
                [
                    3.99699,
                    0.08717,
                    0.07765
                ],
                [
                    0.17914,
                    4.22904,
                    -0.34796
                ],
                [
                    0.05421,
                    -0.49568,
                    4.37353
                ]
            ],
            [
                [
                    3.99699,
                    0.08717,
                    0.07763
                ],
                [
                    0.17913,
                    4.22904,
                    -0.3479
                ],
                [
                    0.05421,
                    -0.49568,
                    4.37357
                ]
            ],
            [
                [
                    4.92555,
                    -0.07958,
                    -0.04635
                ],
                [
                    -0.10183,
                    3.65824,
                    -0.34854
                ],
                [
                    -0.03253,
                    -0.2027,
                    4.25176
                ]
            ],
            [
                [
                    -1.88863,
                    0.21091,
                    -0.1181
                ],
                [
                    0.25735,
                    -2.20971,
                    0.28516
                ],
                [
                    -0.09382,
                    0.17273,
                    -1.5764
                ]
            ],
            [
                [
                    -1.77555,
                    0.20783,
                    0.03316
                ],
                [
                    0.4165,
                    -2.01981,
                    0.05842
                ],
                [
                    -0.04065,
                    0.12931,
                    -1.75186
                ]
            ],
            [
                [
                    -1.69168,
                    -0.09035,
                    0.19132
                ],
                [
                    -0.14428,
                    -1.65018,
                    -0.07036
                ],
                [
                    0.13368,
                    -0.04925,
                    -2.27812
                ]
            ],
            [
                [
                    -2.30731,
                    0.07491,
                    -0.27409
                ],
                [
                    0.09206,
                    -1.95113,
                    0.25556
                ],
                [
                    -0.29671,
                    0.10529,
                    -1.6114
                ]
            ],
            [
                [
                    -1.79083,
                    0.14116,
                    0.0883
                ],
                [
                    0.22036,
                    -1.48714,
                    -0.07891
                ],
                [
                    0.2226,
                    -0.08798,
                    -2.20661
                ]
            ],
            [
                [
                    -2.10417,
                    -0.39397,
                    -0.0882
                ],
                [
                    -0.46138,
                    -1.81425,
                    -0.09749
                ],
                [
                    -0.15614,
                    0.04235,
                    -1.79509
                ]
            ],
            [
                [
                    -2.2392,
                    -0.29625,
                    0.27755
                ],
                [
                    -0.43154,
                    -1.57975,
                    0.03147
                ],
                [
                    0.12539,
                    -0.04092,
                    -2.02799
                ]
            ],
            [
                [
                    -1.64174,
                    0.24433,
                    0.15285
                ],
                [
                    0.28021,
                    -1.91772,
                    0.14876
                ],
                [
                    0.12815,
                    0.33444,
                    -2.31988
                ]
            ],
            [
                [
                    -1.95997,
                    -0.19137,
                    -0.1348
                ],
                [
                    -0.17756,
                    -1.95079,
                    0.02792
                ],
                [
                    -0.18358,
                    -0.07059,
                    -1.59488
                ]
            ],
            [
                [
                    -1.95995,
                    -0.19141,
                    -0.1348
                ],
                [
                    -0.17752,
                    -1.95077,
                    0.02797
                ],
                [
                    -0.18359,
                    -0.07067,
                    -1.59488
                ]
            ],
            [
                [
                    -1.64173,
                    0.24432,
                    0.15278
                ],
                [
                    0.2801,
                    -1.91784,
                    0.1489
                ],
                [
                    0.12819,
                    0.33433,
                    -2.31985
                ]
            ],
            [
                [
                    -2.23922,
                    -0.29627,
                    0.27751
                ],
                [
                    -0.43147,
                    -1.57972,
                    0.03149
                ],
                [
                    0.12544,
                    -0.04091,
                    -2.02795
                ]
            ],
            [
                [
                    -2.10416,
                    -0.3939,
                    -0.0882
                ],
                [
                    -0.46128,
                    -1.81423,
                    -0.09756
                ],
                [
                    -0.15619,
                    0.04226,
                    -1.79512
                ]
            ],
            [
                [
                    -1.79082,
                    0.1412,
                    0.08824
                ],
                [
                    0.22044,
                    -1.48716,
                    -0.07902
                ],
                [
                    0.22259,
                    -0.08802,
                    -2.20644
                ]
            ],
            [
                [
                    -2.30734,
                    0.07492,
                    -0.27411
                ],
                [
                    0.09212,
                    -1.95118,
                    0.25559
                ],
                [
                    -0.29666,
                    0.10526,
                    -1.61137
                ]
            ],
            [
                [
                    -1.6917,
                    -0.09041,
                    0.19131
                ],
                [
                    -0.1443,
                    -1.6502,
                    -0.07031
                ],
                [
                    0.13374,
                    -0.04932,
                    -2.27814
                ]
            ],
            [
                [
                    -1.77552,
                    0.20793,
                    0.03317
                ],
                [
                    0.41651,
                    -2.01969,
                    0.05839
                ],
                [
                    -0.04072,
                    0.12927,
                    -1.75194
                ]
            ],
            [
                [
                    -1.8886,
                    0.21094,
                    -0.11812
                ],
                [
                    0.25737,
                    -2.20977,
                    0.28514
                ],
                [
                    -0.09386,
                    0.17266,
                    -1.57647
                ]
            ]
        ]
    },
    "band_gap": 2.3012999999999995,
    "is_direct": false,
    "formula": "Mg4Sb2O9"
}