{
    "mp_id": "mp-6333",
    "nelements": 4,
    "nsites": 20,
    "elements": [
        "In",
        "Na",
        "O",
        "Si"
    ],
    "structure": {
        "@module": "pymatgen.core.structure",
        "@class": "Structure",
        "charge": null,
        "lattice": {
            "matrix": [
                [
                    4.99493921,
                    -4.58911296,
                    -0.00240473
                ],
                [
                    4.99493921,
                    4.58911296,
                    -0.00240473
                ],
                [
                    -1.64368794,
                    0.0,
                    5.15481103
                ]
            ],
            "a": 6.783021543085483,
            "b": 6.783021543085483,
            "c": 5.410525556645224,
            "alpha": 102.94693602636639,
            "beta": 102.94693602636639,
            "gamma": 85.15063555824433,
            "volume": 236.2843867508384
        },
        "sites": [
            {
                "species": [
                    {
                        "element": "Na",
                        "occu": 1
                    }
                ],
                "abc": [
                    0.70027542,
                    0.29972458,
                    0.75
                ],
                "xyz": [
                    3.762173255,
                    -1.838173050982886,
                    3.8637035425
                ],
                "label": "Na",
                "properties": {}
            },
            {
                "species": [
                    {
                        "element": "Na",
                        "occu": 1
                    }
                ],
                "abc": [
                    0.29972458,
                    0.70027542,
                    0.25
                ],
                "xyz": [
                    4.584017225,
                    1.838173050982886,
                    1.2862980275
                ],
                "label": "Na",
                "properties": {}
            },
            {
                "species": [
                    {
                        "element": "In",
                        "occu": 1
                    }
                ],
                "abc": [
                    0.10457062,
                    0.89542938,
                    0.75
                ],
                "xyz": [
                    3.762173255,
                    3.6293401850455296,
                    3.8637035425
                ],
                "label": "In",
                "properties": {}
            },
            {
                "species": [
                    {
                        "element": "In",
                        "occu": 1
                    }
                ],
                "abc": [
                    0.89542938,
                    0.10457062,
                    0.25
                ],
                "xyz": [
                    4.584017225,
                    -3.6293401850455296,
                    1.2862980275
                ],
                "label": "In",
                "properties": {}
            },
            {
                "species": [
                    {
                        "element": "Si",
                        "occu": 1
                    }
                ],
                "abc": [
                    0.79380242,
                    0.62122584,
                    0.24595452
                ],
                "xyz": [
                    6.663707660819586,
                    -0.7919734198704766,
                    1.2644463116666858
                ],
                "label": "Si",
                "properties": {}
            },
            {
                "species": [
                    {
                        "element": "Si",
                        "occu": 1
                    }
                ],
                "abc": [
                    0.37877416,
                    0.20619758,
                    0.25404548
                ],
                "xyz": [
                    2.504326789180414,
                    -0.7919734198704769,
                    1.3081497433333142
                ],
                "label": "Si",
                "properties": {}
            },
            {
                "species": [
                    {
                        "element": "Si",
                        "occu": 1
                    }
                ],
                "abc": [
                    0.62122584,
                    0.79380242,
                    0.74595452
                ],
                "xyz": [
                    5.8418636908195865,
                    0.7919734198704766,
                    3.841851826666686
                ],
                "label": "Si",
                "properties": {}
            },
            {
                "species": [
                    {
                        "element": "Si",
                        "occu": 1
                    }
                ],
                "abc": [
                    0.20619758,
                    0.37877416,
                    0.75404548
                ],
                "xyz": [
                    1.6824828191804142,
                    0.7919734198704769,
                    3.885555258333315
                ],
                "label": "Si",
                "properties": {}
            },
            {
                "species": [
                    {
                        "element": "O",
                        "occu": 1
                    }
                ],
                "abc": [
                    0.60320836,
                    0.11191677,
                    0.32795104
                ],
                "xyz": [
                    3.0329573825348897,
                    -2.254592602808006,
                    1.6888059554381065
                ],
                "label": "O",
                "properties": {}
            },
            {
                "species": [
                    {
                        "element": "O",
                        "occu": 1
                    }
                ],
                "abc": [
                    0.63889784,
                    0.66168509,
                    0.97429901
                ],
                "xyz": [
                    4.894889140222746,
                    0.10457326429775948,
                    5.019199732476822
                ],
                "label": "O",
                "properties": {}
            },
            {
                "species": [
                    {
                        "element": "O",
                        "occu": 1
                    }
                ],
                "abc": [
                    0.66168509,
                    0.63889784,
                    0.47429901
                ],
                "xyz": [
                    5.716733110222746,
                    -0.10457326429775948,
                    2.4417942174768217
                ],
                "label": "O",
                "properties": {}
            },
            {
                "species": [
                    {
                        "element": "O",
                        "occu": 1
                    }
                ],
                "abc": [
                    0.36110216,
                    0.33831491,
                    0.02570099
                ],
                "xyz": [
                    3.4513013397772543,
                    -0.10457326429775993,
                    0.13080183752317862
                ],
                "label": "O",
                "properties": {}
            },
            {
                "species": [
                    {
                        "element": "O",
                        "occu": 1
                    }
                ],
                "abc": [
                    0.79851424,
                    0.96195897,
                    0.84248901
                ],
                "xyz": [
                    7.408667639464024,
                    0.7500663286867,
                    4.338638178659497
                ],
                "label": "O",
                "properties": {}
            },
            {
                "species": [
                    {
                        "element": "O",
                        "occu": 1
                    }
                ],
                "abc": [
                    0.03804103,
                    0.20148576,
                    0.65751099
                ],
                "xyz": [
                    0.11567887053597548,
                    0.7500663286867008,
                    3.3887689063405033
                ],
                "label": "O",
                "properties": {}
            },
            {
                "species": [
                    {
                        "element": "O",
                        "occu": 1
                    }
                ],
                "abc": [
                    0.88808323,
                    0.39679164,
                    0.17204896
                ],
                "xyz": [
                    6.135077067465111,
                    -2.254592602808006,
                    0.8837900995618937
                ],
                "label": "O",
                "properties": {}
            },
            {
                "species": [
                    {
                        "element": "O",
                        "occu": 1
                    }
                ],
                "abc": [
                    0.96195897,
                    0.79851424,
                    0.34248901
                ],
                "xyz": [
                    8.230511609464024,
                    -0.7500663286867,
                    1.761232663659497
                ],
                "label": "O",
                "properties": {}
            },
            {
                "species": [
                    {
                        "element": "O",
                        "occu": 1
                    }
                ],
                "abc": [
                    0.39679164,
                    0.88808323,
                    0.67204896
                ],
                "xyz": [
                    5.313233097465111,
                    2.254592602808006,
                    3.461195614561894
                ],
                "label": "O",
                "properties": {}
            },
            {
                "species": [
                    {
                        "element": "O",
                        "occu": 1
                    }
                ],
                "abc": [
                    0.11191677,
                    0.60320836,
                    0.82795104
                ],
                "xyz": [
                    2.2111134125348895,
                    2.254592602808006,
                    4.2662114704381064
                ],
                "label": "O",
                "properties": {}
            },
            {
                "species": [
                    {
                        "element": "O",
                        "occu": 1
                    }
                ],
                "abc": [
                    0.20148576,
                    0.03804103,
                    0.15751099
                ],
                "xyz": [
                    0.9375228405359755,
                    -0.7500663286867008,
                    0.811363391340503
                ],
                "label": "O",
                "properties": {}
            },
            {
                "species": [
                    {
                        "element": "O",
                        "occu": 1
                    }
                ],
                "abc": [
                    0.33831491,
                    0.36110216,
                    0.52570099
                ],
                "xyz": [
                    2.629457369777254,
                    0.10457326429775993,
                    2.708207352523179
                ],
                "label": "O",
                "properties": {}
            }
        ]
    },
    "spacegroup": {
        "source": "spglib",
        "symbol": "C2/c",
        "number": 15,
        "point_group": "2/m",
        "crystal_system": "monoclinic",
        "hall": "-C 2yc"
    },
    "dielectric": {
        "epsilon_ionic": [
            [
                5.11471067,
                0.0,
                -0.36399263
            ],
            [
                0.0,
                4.92886624,
                0.0
            ],
            [
                -0.36399263,
                0.0,
                3.73818378
            ]
        ],
        "epsilon_ionic_avg": 4.59392023,
        "epsilon_ionic_eig": [
            5.20503389610193,
            3.64786055389807,
            4.92886624
        ],
        "epsilon_electronic": [
            [
                2.98411844,
                0.0,
                -0.00324015
            ],
            [
                0.0,
                2.98260462,
                0.0
            ],
            [
                -0.0032383,
                0.0,
                2.9871468
            ]
        ],
        "epsilon_electronic_avg": 2.984623286666667,
        "epsilon_electronic_eig": [
            2.9820569635823055,
            2.9892082764176946,
            2.98260462
        ]
    },
    "phonon": {
        "lowest_freq": -0.12830152040429443,
        "frequency": [
            -0.12830152040429443,
            -0.1253912015517331,
            -0.07061115460184819,
            2.676895980315066,
            3.113167581954828,
            3.1577278046842325,
            3.513737434530397,
            3.7088734686024956,
            3.7465976788205086,
            4.092257397948602,
            4.328749204642089,
            4.821501567222199,
            5.025607615473078,
            5.600186265739843,
            5.6068602785161135,
            5.6563932525600675,
            6.033418938877949,
            6.155481827742179,
            6.553270663305774,
            7.406614254893291,
            7.680347613561568,
            8.038395429982447,
            8.363136289149402,
            8.703804574517086,
            8.951818883760803,
            8.95387493195283,
            9.943214181621679,
            10.477868732444847,
            10.690757977753508,
            10.705484609261674,
            10.935952329193293,
            11.008728529961248,
            11.233205453582732,
            11.454164315918797,
            13.165073365259788,
            13.24065871844511,
            13.694713810990994,
            14.19979326632276,
            14.420174179418789,
            15.404477757096606,
            15.421260464821838,
            15.514710816075981,
            15.917831858095676,
            16.106119534543755,
            18.014484804167587,
            18.962142658744035,
            21.257896930570578,
            21.589632060185377,
            25.195283792433155,
            25.56980762769077,
            26.167101771926728,
            27.623370810116672,
            27.669915505131794,
            28.390659963104397,
            29.608844852341242,
            29.79228255480645,
            29.99028786148561,
            30.5635985547347,
            30.60083997846902,
            30.703232405714015
        ]
    },
    "born_effective_charge": {
        "avg_abs_trace": 2.1847725000000002,
        "tensors": [
            [
                [
                    1.11513,
                    -0.0,
                    0.01356
                ],
                [
                    0.0,
                    1.09244,
                    0.0
                ],
                [
                    0.02988,
                    -1e-05,
                    1.07354
                ]
            ],
            [
                [
                    1.11513,
                    0.0,
                    0.01356
                ],
                [
                    0.0,
                    1.09244,
                    0.0
                ],
                [
                    0.02988,
                    1e-05,
                    1.07354
                ]
            ],
            [
                [
                    3.51699,
                    -1e-05,
                    0.04961
                ],
                [
                    0.0,
                    3.40364,
                    0.0
                ],
                [
                    0.01936,
                    -2e-05,
                    3.2141
                ]
            ],
            [
                [
                    3.51699,
                    1e-05,
                    0.04961
                ],
                [
                    0.0,
                    3.40365,
                    0.0
                ],
                [
                    0.01936,
                    2e-05,
                    3.2141
                ]
            ],
            [
                [
                    3.07066,
                    0.48641,
                    -0.03256
                ],
                [
                    0.17998,
                    3.20217,
                    0.23638
                ],
                [
                    -0.0081,
                    0.00749,
                    3.40502
                ]
            ],
            [
                [
                    3.07064,
                    -0.4864,
                    -0.03241
                ],
                [
                    -0.17998,
                    3.20217,
                    -0.23638
                ],
                [
                    -0.00821,
                    -0.00749,
                    3.40514
                ]
            ],
            [
                [
                    3.07066,
                    -0.48641,
                    -0.03256
                ],
                [
                    -0.17998,
                    3.20213,
                    -0.23639
                ],
                [
                    -0.0081,
                    -0.00749,
                    3.40502
                ]
            ],
            [
                [
                    3.07064,
                    0.4864,
                    -0.03241
                ],
                [
                    0.17998,
                    3.20213,
                    0.23639
                ],
                [
                    -0.00821,
                    0.00749,
                    3.40514
                ]
            ],
            [
                [
                    -1.69824,
                    0.75084,
                    -0.03631
                ],
                [
                    0.60863,
                    -2.33163,
                    0.16948
                ],
                [
                    0.00559,
                    0.0806,
                    -1.33422
                ]
            ],
            [
                [
                    -1.44991,
                    -0.25205,
                    0.32127
                ],
                [
                    -0.21619,
                    -1.63306,
                    0.74204
                ],
                [
                    0.2834,
                    0.78827,
                    -2.35565
                ]
            ],
            [
                [
                    -1.44991,
                    0.25205,
                    0.32127
                ],
                [
                    0.21624,
                    -1.63309,
                    -0.74208
                ],
                [
                    0.2834,
                    -0.78827,
                    -2.35565
                ]
            ],
            [
                [
                    -1.44987,
                    -0.25208,
                    0.3214
                ],
                [
                    -0.21624,
                    -1.63309,
                    0.74208
                ],
                [
                    0.28359,
                    0.78836,
                    -2.35556
                ]
            ],
            [
                [
                    -2.23868,
                    0.32135,
                    -0.28405
                ],
                [
                    0.26715,
                    -1.48553,
                    -0.13591
                ],
                [
                    -0.30556,
                    -0.15371,
                    -1.85903
                ]
            ],
            [
                [
                    -2.23856,
                    -0.32138,
                    -0.28409
                ],
                [
                    -0.26715,
                    -1.48553,
                    0.13591
                ],
                [
                    -0.30559,
                    0.15376,
                    -1.8591
                ]
            ],
            [
                [
                    -1.69814,
                    -0.75076,
                    -0.03641
                ],
                [
                    -0.60863,
                    -2.33163,
                    -0.16948
                ],
                [
                    0.00565,
                    -0.0806,
                    -1.33423
                ]
            ],
            [
                [
                    -2.23868,
                    -0.32135,
                    -0.28405
                ],
                [
                    -0.2671,
                    -1.48549,
                    0.1358
                ],
                [
                    -0.30556,
                    0.15371,
                    -1.85903
                ]
            ],
            [
                [
                    -1.69814,
                    0.75076,
                    -0.03641
                ],
                [
                    0.6086,
                    -2.33158,
                    0.16952
                ],
                [
                    0.00565,
                    0.0806,
                    -1.33423
                ]
            ],
            [
                [
                    -1.69824,
                    -0.75084,
                    -0.03631
                ],
                [
                    -0.6086,
                    -2.33158,
                    -0.16952
                ],
                [
                    0.00559,
                    -0.0806,
                    -1.33422
                ]
            ],
            [
                [
                    -2.23856,
                    0.32138,
                    -0.28409
                ],
                [
                    0.2671,
                    -1.48549,
                    -0.1358
                ],
                [
                    -0.30559,
                    -0.15376,
                    -1.8591
                ]
            ],
            [
                [
                    -1.44987,
                    0.25208,
                    0.3214
                ],
                [
                    0.21619,
                    -1.63306,
                    -0.74204
                ],
                [
                    0.28359,
                    -0.78836,
                    -2.35556
                ]
            ]
        ]
    },
    "band_gap": 3.5275,
    "is_direct": false,
    "formula": "NaIn(SiO3)2"
}