{
    "mp_id": "mp-650532",
    "nelements": 4,
    "nsites": 24,
    "elements": [
        "Cd",
        "Cs",
        "K",
        "O"
    ],
    "structure": {
        "@module": "pymatgen.core.structure",
        "@class": "Structure",
        "charge": null,
        "lattice": {
            "matrix": [
                [
                    6.60221098,
                    0.00031543,
                    -0.00062266
                ],
                [
                    2.95427143,
                    8.73886388,
                    -0.00117551
                ],
                [
                    2.68657611,
                    3.18898663,
                    8.45758782
                ]
            ],
            "a": 6.602211016896849,
            "b": 9.224720211318425,
            "c": 9.429640430798718,
            "alpha": 65.70061456052352,
            "beta": 73.450765656161,
            "gamma": 71.31885830123352,
            "volume": 487.9931100827849
        },
        "sites": [
            {
                "species": [
                    {
                        "element": "Cs",
                        "occu": 1
                    }
                ],
                "abc": [
                    0.05326529,
                    0.57460965,
                    0.64809922
                ],
                "xyz": [
                    3.790389436249818,
                    7.088232064448295,
                    5.480647443668357
                ],
                "label": "Cs",
                "properties": {}
            },
            {
                "species": [
                    {
                        "element": "Cs",
                        "occu": 1
                    }
                ],
                "abc": [
                    0.60779215,
                    0.28880897,
                    0.75352719
                ],
                "xyz": [
                    6.890400241975964,
                    4.927042126282348,
                    6.372304438490383
                ],
                "label": "Cs",
                "properties": {}
            },
            {
                "species": [
                    {
                        "element": "Cs",
                        "occu": 1
                    }
                ],
                "abc": [
                    0.39220785,
                    0.71119103,
                    0.24647281
                ],
                "xyz": [
                    5.352658278024035,
                    7.001123813717652,
                    2.083485211509618
                ],
                "label": "Cs",
                "properties": {}
            },
            {
                "species": [
                    {
                        "element": "Cs",
                        "occu": 1
                    }
                ],
                "abc": [
                    0.94673471,
                    0.42539035,
                    0.35190078
                ],
                "xyz": [
                    8.452669083750182,
                    4.839933875551704,
                    2.975142206331643
                ],
                "label": "Cs",
                "properties": {}
            },
            {
                "species": [
                    {
                        "element": "K",
                        "occu": 1
                    }
                ],
                "abc": [
                    0.05336535,
                    0.94935009,
                    0.69520364
                ],
                "xyz": [
                    5.024684638485512,
                    10.513253157095434,
                    5.878596639090539
                ],
                "label": "K",
                "properties": {}
            },
            {
                "species": [
                    {
                        "element": "K",
                        "occu": 1
                    }
                ],
                "abc": [
                    0.24190791,
                    0.56995696,
                    0.97618906
                ],
                "xyz": [
                    5.903540830247861,
                    8.093906456602923,
                    8.25538408738796
                ],
                "label": "K",
                "properties": {}
            },
            {
                "species": [
                    {
                        "element": "K",
                        "occu": 1
                    }
                ],
                "abc": [
                    0.75809209,
                    0.43004304,
                    0.02381094
                ],
                "xyz": [
                    6.339517689752139,
                    3.834259483397076,
                    0.200405562612041
                ],
                "label": "K",
                "properties": {}
            },
            {
                "species": [
                    {
                        "element": "K",
                        "occu": 1
                    }
                ],
                "abc": [
                    0.94663465,
                    0.05064991,
                    0.30479636
                ],
                "xyz": [
                    7.218373881514488,
                    1.4149127829045671,
                    2.577193010909462
                ],
                "label": "K",
                "properties": {}
            },
            {
                "species": [
                    {
                        "element": "Cd",
                        "occu": 1
                    }
                ],
                "abc": [
                    0.60007536,
                    0.81648143,
                    0.50494811
                ],
                "xyz": [
                    7.730513421509649,
                    8.745582130722322,
                    4.269309559858582
                ],
                "label": "Cd",
                "properties": {}
            },
            {
                "species": [
                    {
                        "element": "Cd",
                        "occu": 1
                    }
                ],
                "abc": [
                    0.12455011,
                    0.14112637,
                    0.90526971
                ],
                "xyz": [
                    3.6713076827054447,
                    4.12021642588369,
                    7.656154625280242
                ],
                "label": "Cd",
                "properties": {}
            },
            {
                "species": [
                    {
                        "element": "Cd",
                        "occu": 1
                    }
                ],
                "abc": [
                    0.43213416,
                    0.16910957,
                    0.17070938
                ],
                "xyz": [
                    3.8112602092365737,
                    2.0223517515490097,
                    1.4433217104010554
                ],
                "label": "Cd",
                "properties": {}
            },
            {
                "species": [
                    {
                        "element": "Cd",
                        "occu": 1
                    }
                ],
                "abc": [
                    0.87544989,
                    0.85887363,
                    0.09473029
                ],
                "xyz": [
                    8.571750837294555,
                    7.80794951411631,
                    0.7996350247197591
                ],
                "label": "Cd",
                "properties": {}
            },
            {
                "species": [
                    {
                        "element": "Cd",
                        "occu": 1
                    }
                ],
                "abc": [
                    0.39992464,
                    0.18351857,
                    0.49505189
                ],
                "xyz": [
                    4.5125450984903495,
                    3.1825838092776775,
                    4.1864800901414165
                ],
                "label": "Cd",
                "properties": {}
            },
            {
                "species": [
                    {
                        "element": "Cd",
                        "occu": 1
                    }
                ],
                "abc": [
                    0.56786584,
                    0.83089043,
                    0.82929062
                ],
                "xyz": [
                    8.431798310763424,
                    9.90581418845099,
                    7.012467939598944
                ],
                "label": "Cd",
                "properties": {}
            },
            {
                "species": [
                    {
                        "element": "O",
                        "occu": 1
                    }
                ],
                "abc": [
                    0.81333228,
                    0.72016707,
                    0.98220064
                ],
                "xyz": [
                    10.136117083782954,
                    9.425923253926955,
                    8.305695176590284
                ],
                "label": "O",
                "properties": {}
            },
            {
                "species": [
                    {
                        "element": "O",
                        "occu": 1
                    }
                ],
                "abc": [
                    0.42111094,
                    0.36956551,
                    0.2582011
                ],
                "xyz": [
                    4.565737006408221,
                    4.053115373407876,
                    2.183061841580042
                ],
                "label": "O",
                "properties": {}
            },
            {
                "species": [
                    {
                        "element": "O",
                        "occu": 1
                    }
                ],
                "abc": [
                    0.18666772,
                    0.27983293,
                    0.01779936
                ],
                "xyz": [
                    2.106941436217045,
                    2.502242686073045,
                    0.1500944734097157
                ],
                "label": "O",
                "properties": {}
            },
            {
                "species": [
                    {
                        "element": "O",
                        "occu": 1
                    }
                ],
                "abc": [
                    0.32133045,
                    0.99553385,
                    0.40632113
                ],
                "xyz": [
                    6.15418127669745,
                    9.995688811402676,
                    3.4351263004826262
                ],
                "label": "O",
                "properties": {}
            },
            {
                "species": [
                    {
                        "element": "O",
                        "occu": 1
                    }
                ],
                "abc": [
                    0.67866955,
                    0.00446615,
                    0.59367887
                ],
                "xyz": [
                    6.088877243302549,
                    1.9324771285973266,
                    5.020663349517374
                ],
                "label": "O",
                "properties": {}
            },
            {
                "species": [
                    {
                        "element": "O",
                        "occu": 1
                    }
                ],
                "abc": [
                    0.1038994,
                    0.25443347,
                    0.65312375
                ],
                "xyz": [
                    3.1922979543757863,
                    4.306295140319268,
                    5.523487689864002
                ],
                "label": "O",
                "properties": {}
            },
            {
                "species": [
                    {
                        "element": "O",
                        "occu": 1
                    }
                ],
                "abc": [
                    0.57888906,
                    0.63043449,
                    0.7417989
                ],
                "xyz": [
                    7.677321513591777,
                    7.875050566592123,
                    6.272727808419959
                ],
                "label": "O",
                "properties": {}
            },
            {
                "species": [
                    {
                        "element": "O",
                        "occu": 1
                    }
                ],
                "abc": [
                    0.8961006,
                    0.74556653,
                    0.34687625
                ],
                "xyz": [
                    9.050760565624213,
                    7.621870799680732,
                    2.9323019601359985
                ],
                "label": "O",
                "properties": {}
            },
            {
                "species": [
                    {
                        "element": "O",
                        "occu": 1
                    }
                ],
                "abc": [
                    0.76812514,
                    0.12379407,
                    0.03877181
                ],
                "xyz": [
                    5.541208936013915,
                    1.205704600305002,
                    0.3272921860484561
                ],
                "label": "O",
                "properties": {}
            },
            {
                "species": [
                    {
                        "element": "O",
                        "occu": 1
                    }
                ],
                "abc": [
                    0.23187486,
                    0.87620593,
                    0.96122819
                ],
                "xyz": [
                    6.701849583986084,
                    10.722461339694998,
                    8.128497463951545
                ],
                "label": "O",
                "properties": {}
            }
        ]
    },
    "spacegroup": {
        "source": "spglib",
        "symbol": "P-1",
        "number": 2,
        "point_group": "-1",
        "crystal_system": "triclinic",
        "hall": "-P 1"
    },
    "dielectric": {
        "epsilon_ionic": [
            [
                7.01384016,
                -0.41753661,
                -0.92705756
            ],
            [
                -0.41753661,
                8.26367704,
                1.3531876
            ],
            [
                -0.92705756,
                1.3531876,
                9.1275647
            ]
        ],
        "epsilon_ionic_avg": 8.135027299999999,
        "epsilon_ionic_eig": [
            10.408833179215073,
            6.656634590086622,
            7.339614130698305
        ],
        "epsilon_electronic": [
            [
                4.22093243,
                -0.13180367,
                0.06312527
            ],
            [
                -0.13180203,
                4.10761387,
                0.07339706
            ],
            [
                0.06312491,
                0.07339448,
                4.45298988
            ]
        ],
        "epsilon_electronic_avg": 4.260512060000001,
        "epsilon_electronic_eig": [
            4.000414979480674,
            4.3068832661707415,
            4.4742379343485865
        ]
    },
    "phonon": {
        "lowest_freq": -0.08637300744378326,
        "frequency": [
            -0.08637300744378326,
            -0.04359449636929084,
            -0.023419533219334755,
            1.070582421450346,
            1.3778122753117101,
            1.4338215666439493,
            1.544282595244131,
            1.5960295808365392,
            1.6729611585390167,
            1.7210144581149822,
            1.8557229416839087,
            1.9446019657820082,
            2.0331267446658527,
            2.0586250602038376,
            2.2054376758124326,
            2.2705047674519134,
            2.3397971875885006,
            2.3589844102934756,
            2.4718505272614175,
            2.4761233635203515,
            2.5290417273899135,
            2.7057714085128937,
            2.8235397152242614,
            2.8669585701977356,
            3.1245274190312595,
            3.157329256109108,
            3.288482109897947,
            3.517677518869224,
            3.6216416184107265,
            3.625033694825877,
            3.7356487960206506,
            3.817662937034582,
            3.918356907160126,
            3.9447076345386347,
            4.007273936571595,
            4.16751938105011,
            4.215305769587537,
            4.6342684384244555,
            4.7318455868831695,
            4.824963092957498,
            4.996189995403147,
            5.008482173622772,
            5.420925521735003,
            5.472420338373363,
            5.7060149140354754,
            5.725838579898851,
            5.878935778594167,
            5.937942133044373,
            6.172235357366462,
            6.411794995958862,
            6.578263046110529,
            7.348017417553794,
            8.700204743941056,
            8.764432877835644,
            9.0639543340861,
            9.372409280649196,
            9.617084745663359,
            9.67417193441758,
            9.792486847618866,
            10.288799657035145,
            10.96571914277229,
            11.00485100462893,
            11.567110237370072,
            11.84453509411256,
            11.92803292000198,
            12.65296835445918,
            12.963005955534156,
            13.225382736833437,
            13.37827096359313,
            13.667425025023169,
            14.744709634444689,
            14.905393515114827
        ]
    },
    "born_effective_charge": {
        "avg_abs_trace": 1.8197768055555554,
        "tensors": [
            [
                [
                    1.27371,
                    -0.18553,
                    0.12915
                ],
                [
                    -0.18591,
                    1.62409,
                    -0.07939
                ],
                [
                    0.14686,
                    -0.14715,
                    1.28244
                ]
            ],
            [
                [
                    1.40323,
                    0.03948,
                    0.01549
                ],
                [
                    0.01047,
                    1.25994,
                    -0.06452
                ],
                [
                    0.0133,
                    -0.08042,
                    1.28509
                ]
            ],
            [
                [
                    1.40325,
                    0.03958,
                    0.01546
                ],
                [
                    0.01057,
                    1.25997,
                    -0.06439
                ],
                [
                    0.01326,
                    -0.08034,
                    1.285
                ]
            ],
            [
                [
                    1.27373,
                    -0.18556,
                    0.12903
                ],
                [
                    -0.18593,
                    1.62419,
                    -0.07937
                ],
                [
                    0.14686,
                    -0.14734,
                    1.28237
                ]
            ],
            [
                [
                    1.33385,
                    0.08056,
                    -0.06332
                ],
                [
                    0.04789,
                    0.95969,
                    0.06238
                ],
                [
                    -0.03543,
                    0.05521,
                    1.16348
                ]
            ],
            [
                [
                    1.11687,
                    0.00151,
                    -0.05657
                ],
                [
                    0.03833,
                    1.40259,
                    -0.14619
                ],
                [
                    -0.07758,
                    -0.08637,
                    1.11805
                ]
            ],
            [
                [
                    1.11687,
                    0.00147,
                    -0.05653
                ],
                [
                    0.03834,
                    1.40258,
                    -0.14614
                ],
                [
                    -0.07753,
                    -0.08638,
                    1.11806
                ]
            ],
            [
                [
                    1.33385,
                    0.08059,
                    -0.06333
                ],
                [
                    0.04788,
                    0.95973,
                    0.06239
                ],
                [
                    -0.03539,
                    0.05523,
                    1.16349
                ]
            ],
            [
                [
                    1.38404,
                    -0.47361,
                    -0.07667
                ],
                [
                    -0.51044,
                    1.74255,
                    0.10917
                ],
                [
                    0.02367,
                    0.10208,
                    2.38076
                ]
            ],
            [
                [
                    1.91109,
                    0.3298,
                    0.03564
                ],
                [
                    0.22093,
                    1.88624,
                    0.03914
                ],
                [
                    0.09391,
                    0.1275,
                    2.18608
                ]
            ],
            [
                [
                    2.07307,
                    -0.39561,
                    0.19077
                ],
                [
                    -0.15593,
                    1.64597,
                    0.21487
                ],
                [
                    0.05775,
                    0.24038,
                    2.32292
                ]
            ],
            [
                [
                    1.91107,
                    0.32983,
                    0.03565
                ],
                [
                    0.22073,
                    1.88616,
                    0.03912
                ],
                [
                    0.09394,
                    0.12755,
                    2.18616
                ]
            ],
            [
                [
                    1.38406,
                    -0.47368,
                    -0.07652
                ],
                [
                    -0.51048,
                    1.74298,
                    0.10923
                ],
                [
                    0.02373,
                    0.10179,
                    2.38082
                ]
            ],
            [
                [
                    2.07316,
                    -0.39557,
                    0.19068
                ],
                [
                    -0.15586,
                    1.64578,
                    0.21499
                ],
                [
                    0.05767,
                    0.24038,
                    2.32294
                ]
            ],
            [
                [
                    -2.48816,
                    -0.18259,
                    -0.59662
                ],
                [
                    -0.13651,
                    -1.92904,
                    -0.16211
                ],
                [
                    -0.49714,
                    -0.12177,
                    -2.13825
                ]
            ],
            [
                [
                    -1.82317,
                    -0.02534,
                    0.18165
                ],
                [
                    -0.0682,
                    -2.42868,
                    0.13178
                ],
                [
                    0.02214,
                    0.02452,
                    -2.40606
                ]
            ],
            [
                [
                    -2.48811,
                    -0.18248,
                    -0.59649
                ],
                [
                    -0.13659,
                    -1.92942,
                    -0.16203
                ],
                [
                    -0.49723,
                    -0.1218,
                    -2.13815
                ]
            ],
            [
                [
                    -1.96072,
                    0.13741,
                    -0.13015
                ],
                [
                    -0.03322,
                    -2.00214,
                    0.0966
                ],
                [
                    -0.17521,
                    0.01194,
                    -2.2675
                ]
            ],
            [
                [
                    -1.9605,
                    0.13734,
                    -0.12996
                ],
                [
                    -0.03367,
                    -2.00234,
                    0.09633
                ],
                [
                    -0.17484,
                    0.01211,
                    -2.26762
                ]
            ],
            [
                [
                    -1.79862,
                    0.19521,
                    0.04053
                ],
                [
                    0.34573,
                    -2.11077,
                    -0.17556
                ],
                [
                    0.05709,
                    -0.13218,
                    -2.8071
                ]
            ],
            [
                [
                    -1.82313,
                    -0.02524,
                    0.18174
                ],
                [
                    -0.06854,
                    -2.42857,
                    0.13167
                ],
                [
                    0.02242,
                    0.02458,
                    -2.40591
                ]
            ],
            [
                [
                    -1.7987,
                    0.19519,
                    0.04024
                ],
                [
                    0.34619,
                    -2.11104,
                    -0.17553
                ],
                [
                    0.05673,
                    -0.13231,
                    -2.80727
                ]
            ],
            [
                [
                    -2.42541,
                    0.47854,
                    0.33015
                ],
                [
                    0.42714,
                    -2.05013,
                    -0.02614
                ],
                [
                    0.37048,
                    0.0063,
                    -2.11996
                ]
            ],
            [
                [
                    -2.42533,
                    0.47868,
                    0.32998
                ],
                [
                    0.42709,
                    -2.05032,
                    -0.0263
                ],
                [
                    0.37053,
                    0.00648,
                    -2.11984
                ]
            ]
        ]
    },
    "band_gap": 1.2716,
    "is_direct": true,
    "formula": "Cs2K2Cd3O5"
}