{
    "mp_id": "mp-6600",
    "nelements": 4,
    "nsites": 30,
    "elements": [
        "K",
        "O",
        "Si",
        "Zr"
    ],
    "structure": {
        "@module": "pymatgen.core.structure",
        "@class": "Structure",
        "charge": null,
        "lattice": {
            "matrix": [
                [
                    6.96226215,
                    -0.0,
                    0.0
                ],
                [
                    -3.48113057,
                    6.02949518,
                    0.0
                ],
                [
                    0.0,
                    0.0,
                    10.30220925
                ]
            ],
            "a": 6.96226215,
            "b": 6.962261282875827,
            "c": 10.30220925,
            "alpha": 90.0,
            "beta": 90.0,
            "gamma": 119.9999993211553,
            "volume": 432.47568051824265
        },
        "sites": [
            {
                "species": [
                    {
                        "element": "K",
                        "occu": 1
                    }
                ],
                "abc": [
                    0.333333,
                    0.666667,
                    0.05464911
                ],
                "xyz": [
                    -3.1444642401012857e-06,
                    4.01966546316506,
                    0.5630065665462676
                ],
                "label": "K",
                "properties": {}
            },
            {
                "species": [
                    {
                        "element": "K",
                        "occu": 1
                    }
                ],
                "abc": [
                    0.666667,
                    0.333333,
                    0.55464911
                ],
                "xyz": [
                    3.4811347244642397,
                    2.0098297168349397,
                    5.714111191546268
                ],
                "label": "K",
                "properties": {}
            },
            {
                "species": [
                    {
                        "element": "K",
                        "occu": 1
                    }
                ],
                "abc": [
                    0.333333,
                    0.666667,
                    0.44535089
                ],
                "xyz": [
                    -3.1444642401012857e-06,
                    4.01966546316506,
                    4.588098058453733
                ],
                "label": "K",
                "properties": {}
            },
            {
                "species": [
                    {
                        "element": "K",
                        "occu": 1
                    }
                ],
                "abc": [
                    0.666667,
                    0.333333,
                    0.94535089
                ],
                "xyz": [
                    3.4811347244642397,
                    2.0098297168349397,
                    9.739202683453733
                ],
                "label": "K",
                "properties": {}
            },
            {
                "species": [
                    {
                        "element": "Zr",
                        "occu": 1
                    }
                ],
                "abc": [
                    0.0,
                    0.0,
                    0.0
                ],
                "xyz": [
                    0.0,
                    0.0,
                    0.0
                ],
                "label": "Zr",
                "properties": {}
            },
            {
                "species": [
                    {
                        "element": "Zr",
                        "occu": 1
                    }
                ],
                "abc": [
                    0.0,
                    0.0,
                    0.5
                ],
                "xyz": [
                    0.0,
                    0.0,
                    5.151104625
                ],
                "label": "Zr",
                "properties": {}
            },
            {
                "species": [
                    {
                        "element": "Si",
                        "occu": 1
                    }
                ],
                "abc": [
                    0.61401643,
                    0.73851713,
                    0.75
                ],
                "xyz": [
                    1.7040687923554603,
                    4.452885475682433,
                    7.7266569375000005
                ],
                "label": "Si",
                "properties": {}
            },
            {
                "species": [
                    {
                        "element": "Si",
                        "occu": 1
                    }
                ],
                "abc": [
                    0.8754993,
                    0.61401643,
                    0.25
                ],
                "xyz": [
                    3.95798427378623,
                    3.702209105125807,
                    2.5755523125
                ],
                "label": "Si",
                "properties": {}
            },
            {
                "species": [
                    {
                        "element": "Si",
                        "occu": 1
                    }
                ],
                "abc": [
                    0.73851713,
                    0.1245007,
                    0.25
                ],
                "xyz": [
                    4.708346668569231,
                    0.750676370556626,
                    2.5755523125
                ],
                "label": "Si",
                "properties": {}
            },
            {
                "species": [
                    {
                        "element": "Si",
                        "occu": 1
                    }
                ],
                "abc": [
                    0.26148287,
                    0.8754993,
                    0.75
                ],
                "xyz": [
                    -1.2272150885692306,
                    5.278818809443374,
                    7.7266569375000005
                ],
                "label": "Si",
                "properties": {}
            },
            {
                "species": [
                    {
                        "element": "Si",
                        "occu": 1
                    }
                ],
                "abc": [
                    0.1245007,
                    0.38598357,
                    0.75
                ],
                "xyz": [
                    -0.47685269378622985,
                    2.3272860748741926,
                    7.7266569375000005
                ],
                "label": "Si",
                "properties": {}
            },
            {
                "species": [
                    {
                        "element": "Si",
                        "occu": 1
                    }
                ],
                "abc": [
                    0.38598357,
                    0.26148287,
                    0.25
                ],
                "xyz": [
                    1.7770627876445395,
                    1.5766097043175664,
                    2.5755523125
                ],
                "label": "Si",
                "properties": {}
            },
            {
                "species": [
                    {
                        "element": "O",
                        "occu": 1
                    }
                ],
                "abc": [
                    0.25538,
                    0.23895214,
                    0.38350661
                ],
                "xyz": [
                    0.9461989085460802,
                    1.4407607763806851,
                    3.950965344978143
                ],
                "label": "O",
                "properties": {}
            },
            {
                "species": [
                    {
                        "element": "O",
                        "occu": 1
                    }
                ],
                "abc": [
                    0.01642785,
                    0.25538,
                    0.88350661
                ],
                "xyz": [
                    -0.7746361267057225,
                    1.5398124790683998,
                    9.102069969978142
                ],
                "label": "O",
                "properties": {}
            },
            {
                "species": [
                    {
                        "element": "O",
                        "occu": 1
                    }
                ],
                "abc": [
                    0.23895214,
                    0.98357215,
                    0.88350661
                ],
                "xyz": [
                    -1.7602956391821245,
                    5.930443537607236,
                    9.102069969978142
                ],
                "label": "O",
                "properties": {}
            },
            {
                "species": [
                    {
                        "element": "O",
                        "occu": 1
                    }
                ],
                "abc": [
                    0.76104786,
                    0.01642785,
                    0.38350661
                ],
                "xyz": [
                    5.241427219182125,
                    0.099051642392763,
                    3.950965344978143
                ],
                "label": "O",
                "properties": {}
            },
            {
                "species": [
                    {
                        "element": "O",
                        "occu": 1
                    }
                ],
                "abc": [
                    0.98357215,
                    0.74462,
                    0.38350661
                ],
                "xyz": [
                    4.255767706705723,
                    4.489682700931599,
                    3.950965344978143
                ],
                "label": "O",
                "properties": {}
            },
            {
                "species": [
                    {
                        "element": "O",
                        "occu": 1
                    }
                ],
                "abc": [
                    0.74462,
                    0.76104786,
                    0.88350661
                ],
                "xyz": [
                    2.5349326714539195,
                    4.5887344036193145,
                    9.102069969978142
                ],
                "label": "O",
                "properties": {}
            },
            {
                "species": [
                    {
                        "element": "O",
                        "occu": 1
                    }
                ],
                "abc": [
                    0.74462,
                    0.76104786,
                    0.61649339
                ],
                "xyz": [
                    2.5349326714539195,
                    4.5887344036193145,
                    6.3512439050218585
                ],
                "label": "O",
                "properties": {}
            },
            {
                "species": [
                    {
                        "element": "O",
                        "occu": 1
                    }
                ],
                "abc": [
                    0.98357215,
                    0.74462,
                    0.11649339
                ],
                "xyz": [
                    4.255767706705723,
                    4.489682700931599,
                    1.2001392800218575
                ],
                "label": "O",
                "properties": {}
            },
            {
                "species": [
                    {
                        "element": "O",
                        "occu": 1
                    }
                ],
                "abc": [
                    0.76104786,
                    0.01642785,
                    0.11649339
                ],
                "xyz": [
                    5.241427219182125,
                    0.099051642392763,
                    1.2001392800218575
                ],
                "label": "O",
                "properties": {}
            },
            {
                "species": [
                    {
                        "element": "O",
                        "occu": 1
                    }
                ],
                "abc": [
                    0.23895214,
                    0.98357215,
                    0.61649339
                ],
                "xyz": [
                    -1.7602956391821245,
                    5.930443537607236,
                    6.3512439050218585
                ],
                "label": "O",
                "properties": {}
            },
            {
                "species": [
                    {
                        "element": "O",
                        "occu": 1
                    }
                ],
                "abc": [
                    0.01642785,
                    0.25538,
                    0.61649339
                ],
                "xyz": [
                    -0.7746361267057225,
                    1.5398124790683998,
                    6.3512439050218585
                ],
                "label": "O",
                "properties": {}
            },
            {
                "species": [
                    {
                        "element": "O",
                        "occu": 1
                    }
                ],
                "abc": [
                    0.25538,
                    0.23895214,
                    0.11649339
                ],
                "xyz": [
                    0.9461989085460802,
                    1.4407607763806851,
                    1.2001392800218575
                ],
                "label": "O",
                "properties": {}
            },
            {
                "species": [
                    {
                        "element": "O",
                        "occu": 1
                    }
                ],
                "abc": [
                    0.48386653,
                    0.08847783,
                    0.25
                ],
                "xyz": [
                    3.060802748690577,
                    0.5334766495218594,
                    2.5755523125
                ],
                "label": "O",
                "properties": {}
            },
            {
                "species": [
                    {
                        "element": "O",
                        "occu": 1
                    }
                ],
                "abc": [
                    0.3953887,
                    0.48386653,
                    0.75
                ],
                "xyz": [
                    1.0683972111648825,
                    2.9174709103983254,
                    7.7266569375000005
                ],
                "label": "O",
                "properties": {}
            },
            {
                "species": [
                    {
                        "element": "O",
                        "occu": 1
                    }
                ],
                "abc": [
                    0.08847783,
                    0.6046113,
                    0.75
                ],
                "xyz": [
                    -1.4887250324743062,
                    3.6455009191235335,
                    7.7266569375000005
                ],
                "label": "O",
                "properties": {}
            },
            {
                "species": [
                    {
                        "element": "O",
                        "occu": 1
                    }
                ],
                "abc": [
                    0.91152217,
                    0.3953887,
                    0.25
                ],
                "xyz": [
                    4.969856612474306,
                    2.3839942608764657,
                    2.5755523125
                ],
                "label": "O",
                "properties": {}
            },
            {
                "species": [
                    {
                        "element": "O",
                        "occu": 1
                    }
                ],
                "abc": [
                    0.6046113,
                    0.51613347,
                    0.25
                ],
                "xyz": [
                    2.412734368835117,
                    3.112024269601674,
                    2.5755523125
                ],
                "label": "O",
                "properties": {}
            },
            {
                "species": [
                    {
                        "element": "O",
                        "occu": 1
                    }
                ],
                "abc": [
                    0.51613347,
                    0.91152217,
                    0.75
                ],
                "xyz": [
                    0.4203288313094231,
                    5.496018530478141,
                    7.7266569375000005
                ],
                "label": "O",
                "properties": {}
            }
        ]
    },
    "spacegroup": {
        "source": "spglib",
        "symbol": "P6_3/m",
        "number": 176,
        "point_group": "6/m",
        "crystal_system": "hexagonal",
        "hall": "-P 6c"
    },
    "dielectric": {
        "epsilon_ionic": [
            [
                6.02165409,
                -5.435e-05,
                0.0
            ],
            [
                -5.435e-05,
                6.02173804,
                0.0
            ],
            [
                0.0,
                0.0,
                6.52293758
            ]
        ],
        "epsilon_ionic_avg": 6.188776570000001,
        "epsilon_ionic_eig": [
            6.021627393148962,
            6.021764736851038,
            6.52293758
        ],
        "epsilon_electronic": [
            [
                2.76509469,
                5.4e-07,
                0.0
            ],
            [
                -5.4e-07,
                2.76509491,
                0.0
            ],
            [
                0.0,
                0.0,
                2.91302825
            ]
        ],
        "epsilon_electronic_avg": 2.8144059500000007,
        "epsilon_electronic_eig": [
            2.765094800000001,
            2.765094800000001,
            2.91302825
        ]
    },
    "phonon": {
        "lowest_freq": -0.06824629543253359,
        "frequency": [
            -0.06824629543253359,
            -0.03342373760876883,
            -0.03342373629257777,
            2.1651209859543785,
            2.1651210480387015,
            2.280391614248933,
            2.280391667836248,
            2.3867410598222447,
            2.4950197579828193,
            2.837145524625818,
            3.0434217788850493,
            3.082825112081259,
            3.0828252349621175,
            3.1059244772646646,
            3.105924599231634,
            3.2729120898769937,
            3.2729121048117142,
            3.49454303452739,
            3.6187855291637026,
            3.6187856237148104,
            4.305022706190336,
            4.549427625673079,
            4.549427797580507,
            4.732510390146982,
            4.73251043662551,
            4.953302437597435,
            5.251490653958893,
            5.251490653958893,
            5.590796184379592,
            5.722716032744827,
            5.722716139512368,
            6.499495097366811,
            6.499495266580045,
            6.600542748722556,
            7.604207007080676,
            7.932939666874273,
            7.932939820915613,
            8.276225059846999,
            8.532339263235707,
            8.532339363489628,
            9.346431397603592,
            9.707022596462956,
            9.958997863184939,
            10.216676738261715,
            10.216676905713515,
            10.455278744484058,
            10.455278802923468,
            10.513848149011974,
            10.513848300108014,
            10.647383656429835,
            10.831203081943197,
            10.83120311578987,
            12.497697521007238,
            12.4976976187853,
            13.036113099099126,
            13.036113136594984,
            13.421246764240953,
            14.073872080924358,
            14.977000190768084,
            14.977000304996627,
            15.46302671678208,
            15.463026922252958,
            15.96697991472658,
            16.133615230372012,
            16.374213570963246,
            16.927877791809063,
            18.280718988151392,
            18.561586620226425,
            21.454486438645944,
            21.454486666477198,
            21.47267367585762,
            21.472673903495906,
            27.440295520500136,
            27.440295698632422,
            27.503705174718693,
            27.503705352440296,
            28.233063926503288,
            28.260965517647183,
            28.82234205503738,
            29.23833644114374,
            29.23833652473267,
            29.270478236693915,
            29.27047832019106,
            29.89224106134493,
            29.914591923814847,
            29.914592577409262,
            29.980336678060514,
            29.980337330221644,
            30.85651610168327,
            33.730222956087765
        ]
    },
    "born_effective_charge": {
        "avg_abs_trace": 2.2918464444444444,
        "tensors": [
            [
                [
                    1.29863,
                    0.00264,
                    -2e-05
                ],
                [
                    -0.00261,
                    1.29867,
                    -1e-05
                ],
                [
                    -0.0,
                    0.0,
                    1.10979
                ]
            ],
            [
                [
                    1.29866,
                    0.00263,
                    2e-05
                ],
                [
                    -0.00262,
                    1.29866,
                    2e-05
                ],
                [
                    -0.0,
                    0.0,
                    1.10979
                ]
            ],
            [
                [
                    1.29863,
                    0.00264,
                    2e-05
                ],
                [
                    -0.00261,
                    1.29867,
                    1e-05
                ],
                [
                    -0.0,
                    0.0,
                    1.10977
                ]
            ],
            [
                [
                    1.29866,
                    0.00263,
                    -2e-05
                ],
                [
                    -0.00262,
                    1.29866,
                    -2e-05
                ],
                [
                    -0.0,
                    0.0,
                    1.10977
                ]
            ],
            [
                [
                    4.59518,
                    0.46606,
                    -0.00032
                ],
                [
                    -0.46629,
                    4.59507,
                    -6e-05
                ],
                [
                    -0.0,
                    0.0,
                    5.57289
                ]
            ],
            [
                [
                    4.59518,
                    0.46606,
                    0.00032
                ],
                [
                    -0.46629,
                    4.59507,
                    6e-05
                ],
                [
                    -0.0,
                    0.0,
                    5.57289
                ]
            ],
            [
                [
                    3.5753,
                    0.17473,
                    0.0
                ],
                [
                    0.64918,
                    2.8392,
                    0.0
                ],
                [
                    -1e-05,
                    0.0,
                    3.38221
                ]
            ],
            [
                [
                    2.66613,
                    -0.12427,
                    0.0
                ],
                [
                    0.35011,
                    3.74782,
                    0.0
                ],
                [
                    -1e-05,
                    -1e-05,
                    3.38221
                ]
            ],
            [
                [
                    3.37975,
                    -0.7622,
                    0.0
                ],
                [
                    -0.28771,
                    3.03447,
                    0.0
                ],
                [
                    -0.0,
                    1e-05,
                    3.38221
                ]
            ],
            [
                [
                    3.37977,
                    -0.76206,
                    0.0
                ],
                [
                    -0.28768,
                    3.03444,
                    0.0
                ],
                [
                    0.0,
                    -1e-05,
                    3.38221
                ]
            ],
            [
                [
                    2.66632,
                    -0.12425,
                    0.0
                ],
                [
                    0.34975,
                    3.74779,
                    0.0
                ],
                [
                    1e-05,
                    1e-05,
                    3.38221
                ]
            ],
            [
                [
                    3.57529,
                    0.1748,
                    0.0
                ],
                [
                    0.64939,
                    2.83891,
                    0.0
                ],
                [
                    1e-05,
                    -0.0,
                    3.38221
                ]
            ],
            [
                [
                    -1.78425,
                    -0.54621,
                    0.76178
                ],
                [
                    -0.51001,
                    -1.72086,
                    0.54361
                ],
                [
                    0.79331,
                    0.65623,
                    -2.3965
                ]
            ],
            [
                [
                    -1.27939,
                    0.21862,
                    -0.08999
                ],
                [
                    0.25478,
                    -2.22551,
                    0.93124
                ],
                [
                    -0.17165,
                    1.01514,
                    -2.3965
                ]
            ],
            [
                [
                    -2.19401,
                    0.27341,
                    0.85175
                ],
                [
                    0.30959,
                    -1.31092,
                    -0.38763
                ],
                [
                    0.96496,
                    -0.35891,
                    -2.3965
                ]
            ],
            [
                [
                    -2.19408,
                    0.27344,
                    -0.85174
                ],
                [
                    0.3097,
                    -1.31105,
                    0.388
                ],
                [
                    -0.96496,
                    0.35891,
                    -2.3965
                ]
            ],
            [
                [
                    -1.27931,
                    0.21859,
                    0.08976
                ],
                [
                    0.25466,
                    -2.22575,
                    -0.93159
                ],
                [
                    0.17165,
                    -1.01514,
                    -2.3965
                ]
            ],
            [
                [
                    -1.78411,
                    -0.54605,
                    -0.76156
                ],
                [
                    -0.5099,
                    -1.72084,
                    -0.54356
                ],
                [
                    -0.79331,
                    -0.65623,
                    -2.3965
                ]
            ],
            [
                [
                    -1.78411,
                    -0.54605,
                    0.76156
                ],
                [
                    -0.5099,
                    -1.72084,
                    0.54356
                ],
                [
                    0.79333,
                    0.65624,
                    -2.3965
                ]
            ],
            [
                [
                    -1.27931,
                    0.21859,
                    -0.08976
                ],
                [
                    0.25466,
                    -2.22575,
                    0.93159
                ],
                [
                    -0.17165,
                    1.01517,
                    -2.3965
                ]
            ],
            [
                [
                    -2.19408,
                    0.27344,
                    0.85174
                ],
                [
                    0.3097,
                    -1.31105,
                    -0.388
                ],
                [
                    0.96499,
                    -0.35893,
                    -2.3965
                ]
            ],
            [
                [
                    -2.19401,
                    0.27341,
                    -0.85175
                ],
                [
                    0.30959,
                    -1.31092,
                    0.38763
                ],
                [
                    -0.96499,
                    0.35893,
                    -2.3965
                ]
            ],
            [
                [
                    -1.27939,
                    0.21862,
                    0.08999
                ],
                [
                    0.25478,
                    -2.22551,
                    -0.93124
                ],
                [
                    0.17165,
                    -1.01517,
                    -2.3965
                ]
            ],
            [
                [
                    -1.78425,
                    -0.54621,
                    -0.76178
                ],
                [
                    -0.51001,
                    -1.72086,
                    -0.54361
                ],
                [
                    -0.79333,
                    -0.65624,
                    -2.3965
                ]
            ],
            [
                [
                    -2.84852,
                    0.43945,
                    0.0
                ],
                [
                    0.20684,
                    -1.35036,
                    0.0
                ],
                [
                    -1e-05,
                    -2e-05,
                    -1.18669
                ]
            ],
            [
                [
                    -2.00488,
                    -0.69436,
                    0.0
                ],
                [
                    -0.92628,
                    -2.19465,
                    0.0
                ],
                [
                    1e-05,
                    -2e-05,
                    -1.18669
                ]
            ],
            [
                [
                    -1.44525,
                    0.60339,
                    0.0
                ],
                [
                    0.37134,
                    -2.75407,
                    0.0
                ],
                [
                    -2e-05,
                    -0.0,
                    -1.18669
                ]
            ],
            [
                [
                    -1.44493,
                    0.60339,
                    0.0
                ],
                [
                    0.37045,
                    -2.75404,
                    0.0
                ],
                [
                    2e-05,
                    0.0,
                    -1.18669
                ]
            ],
            [
                [
                    -2.00471,
                    -0.69404,
                    0.0
                ],
                [
                    -0.92698,
                    -2.19394,
                    0.0
                ],
                [
                    -1e-05,
                    2e-05,
                    -1.18669
                ]
            ],
            [
                [
                    -2.84893,
                    0.43916,
                    0.0
                ],
                [
                    0.207,
                    -1.35051,
                    0.0
                ],
                [
                    1e-05,
                    2e-05,
                    -1.18669
                ]
            ]
        ]
    },
    "band_gap": 4.803000000000001,
    "is_direct": false,
    "formula": "K2Zr(SiO3)3"
}