{
    "mp_id": "mp-6853",
    "nelements": 5,
    "nsites": 23,
    "elements": [
        "Ca",
        "Ga",
        "O",
        "Si",
        "Ta"
    ],
    "structure": {
        "@module": "pymatgen.core.structure",
        "@class": "Structure",
        "charge": null,
        "lattice": {
            "matrix": [
                [
                    8.09866379,
                    0.0,
                    0.0
                ],
                [
                    -4.04933239,
                    7.01364921,
                    0.0
                ],
                [
                    0.0,
                    0.0,
                    4.97993166
                ]
            ],
            "a": 8.09866379,
            "b": 8.09866458409266,
            "c": 4.97993166,
            "alpha": 90.0,
            "beta": 90.0,
            "gamma": 120.00000080020139,
            "volume": 282.8660289329775
        },
        "sites": [
            {
                "species": [
                    {
                        "element": "Ca",
                        "occu": 1
                    }
                ],
                "abc": [
                    0.0,
                    0.42350893,
                    0.0
                ],
                "xyz": [
                    -1.7149284277032428,
                    2.970343072322445,
                    0.0
                ],
                "label": "Ca",
                "properties": {}
            },
            {
                "species": [
                    {
                        "element": "Ca",
                        "occu": 1
                    }
                ],
                "abc": [
                    0.57649107,
                    0.57649107,
                    0.0
                ],
                "xyz": [
                    2.3344033915705977,
                    4.043306137677554,
                    0.0
                ],
                "label": "Ca",
                "properties": {}
            },
            {
                "species": [
                    {
                        "element": "Ca",
                        "occu": 1
                    }
                ],
                "abc": [
                    0.42350893,
                    0.0,
                    0.0
                ],
                "xyz": [
                    3.4298564361326447,
                    0.0,
                    0.0
                ],
                "label": "Ca",
                "properties": {}
            },
            {
                "species": [
                    {
                        "element": "Ta",
                        "occu": 1
                    }
                ],
                "abc": [
                    0.0,
                    0.0,
                    0.0
                ],
                "xyz": [
                    0.0,
                    0.0,
                    0.0
                ],
                "label": "Ta",
                "properties": {}
            },
            {
                "species": [
                    {
                        "element": "Ga",
                        "occu": 1
                    }
                ],
                "abc": [
                    0.25517466,
                    0.25517466,
                    0.5
                ],
                "xyz": [
                    1.0332867632223237,
                    1.7897055525210186,
                    2.48996583
                ],
                "label": "Ga",
                "properties": {}
            },
            {
                "species": [
                    {
                        "element": "Ga",
                        "occu": 1
                    }
                ],
                "abc": [
                    0.74482534,
                    0.0,
                    0.5
                ],
                "xyz": [
                    6.032090010932438,
                    0.0,
                    2.48996583
                ],
                "label": "Ga",
                "properties": {}
            },
            {
                "species": [
                    {
                        "element": "Ga",
                        "occu": 1
                    }
                ],
                "abc": [
                    0.0,
                    0.74482534,
                    0.5
                ],
                "xyz": [
                    -3.016045374154763,
                    5.223943657478981,
                    2.48996583
                ],
                "label": "Ga",
                "properties": {}
            },
            {
                "species": [
                    {
                        "element": "Si",
                        "occu": 1
                    }
                ],
                "abc": [
                    0.333333,
                    0.666667,
                    0.55149611
                ],
                "xyz": [
                    -4.379332060100438e-06,
                    4.67576847788307,
                    2.7464129385558427
                ],
                "label": "Si",
                "properties": {}
            },
            {
                "species": [
                    {
                        "element": "Si",
                        "occu": 1
                    }
                ],
                "abc": [
                    0.666667,
                    0.333333,
                    0.44850389
                ],
                "xyz": [
                    4.04933577933206,
                    2.33788073211693,
                    2.2335187214441574
                ],
                "label": "Si",
                "properties": {}
            },
            {
                "species": [
                    {
                        "element": "O",
                        "occu": 1
                    }
                ],
                "abc": [
                    0.08402315,
                    0.22677721,
                    0.23658412
                ],
                "xyz": [
                    -0.23782105934009345,
                    1.590535799762504,
                    1.1781727494412393
                ],
                "label": "O",
                "properties": {}
            },
            {
                "species": [
                    {
                        "element": "O",
                        "occu": 1
                    }
                ],
                "abc": [
                    0.77322279,
                    0.85724594,
                    0.23658412
                ],
                "xyz": [
                    2.7907976599377773,
                    6.012422309856707,
                    1.1781727494412393
                ],
                "label": "O",
                "properties": {}
            },
            {
                "species": [
                    {
                        "element": "O",
                        "occu": 1
                    }
                ],
                "abc": [
                    0.14275406,
                    0.91597685,
                    0.23658412
                ],
                "xyz": [
                    -2.552977590597684,
                    6.424340310380788,
                    1.1781727494412393
                ],
                "label": "O",
                "properties": {}
            },
            {
                "species": [
                    {
                        "element": "O",
                        "occu": 1
                    }
                ],
                "abc": [
                    0.85724594,
                    0.77322279,
                    0.76341588
                ],
                "xyz": [
                    3.8115105651693444,
                    5.423113410237496,
                    3.8017589105587613
                ],
                "label": "O",
                "properties": {}
            },
            {
                "species": [
                    {
                        "element": "O",
                        "occu": 1
                    }
                ],
                "abc": [
                    0.91597685,
                    0.14275406,
                    0.76341588
                ],
                "xyz": [
                    6.8401299086112575,
                    1.0012269001432925,
                    3.8017589105587613
                ],
                "label": "O",
                "properties": {}
            },
            {
                "species": [
                    {
                        "element": "O",
                        "occu": 1
                    }
                ],
                "abc": [
                    0.22677721,
                    0.08402315,
                    0.76341588
                ],
                "xyz": [
                    1.4963547162193975,
                    0.5893088996192115,
                    3.8017589105587613
                ],
                "label": "O",
                "properties": {}
            },
            {
                "species": [
                    {
                        "element": "O",
                        "occu": 1
                    }
                ],
                "abc": [
                    0.32255771,
                    0.4764098,
                    0.69369426
                ],
                "xyz": [
                    0.683144812108899,
                    3.341371217406258,
                    3.4545500077342717
                ],
                "label": "O",
                "properties": {}
            },
            {
                "species": [
                    {
                        "element": "O",
                        "occu": 1
                    }
                ],
                "abc": [
                    0.5235902,
                    0.84614791,
                    0.69369426
                ],
                "xyz": [
                    0.8140468548450532,
                    5.93458462051465,
                    3.4545500077342717
                ],
                "label": "O",
                "properties": {}
            },
            {
                "species": [
                    {
                        "element": "O",
                        "occu": 1
                    }
                ],
                "abc": [
                    0.15385209,
                    0.67744229,
                    0.69369426
                ],
                "xyz": [
                    -1.4971926569539522,
                    4.751342582079091,
                    3.4545500077342717
                ],
                "label": "O",
                "properties": {}
            },
            {
                "species": [
                    {
                        "element": "O",
                        "occu": 1
                    }
                ],
                "abc": [
                    0.333333,
                    0.666667,
                    0.22860235
                ],
                "xyz": [
                    -4.379332060100438e-06,
                    4.67576847788307,
                    1.138424080315401
                ],
                "label": "O",
                "properties": {}
            },
            {
                "species": [
                    {
                        "element": "O",
                        "occu": 1
                    }
                ],
                "abc": [
                    0.666667,
                    0.333333,
                    0.77139765
                ],
                "xyz": [
                    4.04933577933206,
                    2.33788073211693,
                    3.8415075796845994
                ],
                "label": "O",
                "properties": {}
            },
            {
                "species": [
                    {
                        "element": "O",
                        "occu": 1
                    }
                ],
                "abc": [
                    0.4764098,
                    0.32255771,
                    0.30630574
                ],
                "xyz": [
                    2.552139413713915,
                    2.2623066279209088,
                    1.5253816522657284
                ],
                "label": "O",
                "properties": {}
            },
            {
                "species": [
                    {
                        "element": "O",
                        "occu": 1
                    }
                ],
                "abc": [
                    0.67744229,
                    0.15385209,
                    0.30630574
                ],
                "xyz": [
                    4.863379092531484,
                    1.0790645894853488,
                    1.5253816522657284
                ],
                "label": "O",
                "properties": {}
            },
            {
                "species": [
                    {
                        "element": "O",
                        "occu": 1
                    }
                ],
                "abc": [
                    0.84614791,
                    0.5235902,
                    0.30630574
                ],
                "xyz": [
                    4.732476683754601,
                    3.6722779925937417,
                    1.5253816522657284
                ],
                "label": "O",
                "properties": {}
            }
        ]
    },
    "spacegroup": {
        "source": "spglib",
        "symbol": "P321",
        "number": 150,
        "point_group": "32",
        "crystal_system": "trigonal",
        "hall": "P 3 2\""
    },
    "dielectric": {
        "epsilon_ionic": [
            [
                24.41425711,
                -7.582e-05,
                0.0
            ],
            [
                -7.582e-05,
                24.41914689,
                0.00032208
            ],
            [
                0.0,
                0.00032208,
                27.87090051
            ]
        ],
        "epsilon_ionic_avg": 25.568101503333338,
        "epsilon_ionic_eig": [
            24.4142559346248,
            24.41914803532221,
            27.870900540052993
        ],
        "epsilon_electronic": [
            [
                3.40292377,
                0.0,
                0.0
            ],
            [
                -0.0,
                3.40292401,
                -0.0
            ],
            [
                0.0,
                0.0,
                3.66645497
            ]
        ],
        "epsilon_electronic_avg": 3.4907675833333336,
        "epsilon_electronic_eig": [
            3.40292377,
            3.40292401,
            3.66645497
        ]
    },
    "phonon": {
        "lowest_freq": -0.12265906651967774,
        "frequency": [
            -0.12265906651967774,
            -0.05771446590399221,
            -0.0577144637866709,
            1.2974736599855488,
            1.7203966065699572,
            1.7203966278790084,
            3.0301350347992053,
            3.138919709593208,
            3.1389197368446373,
            3.9400316389239225,
            4.248641361668586,
            4.248641430697748,
            4.492147264315856,
            4.492147269756465,
            4.558431175754827,
            4.904167903873148,
            4.904167913840185,
            5.065758839283807,
            5.774722575238638,
            5.9450939876408695,
            5.945094028750418,
            6.707953938273594,
            6.70795401114235,
            6.759513643258211,
            6.759513733649379,
            7.08609012330887,
            7.177132710542614,
            7.843789778260405,
            7.964029401178455,
            7.964029447210454,
            8.578087056860385,
            8.642590258504036,
            8.642590300921896,
            9.069532944358027,
            9.069532957831717,
            9.508410109624336,
            9.576056935160098,
            9.5760570117261,
            10.578307247021181,
            12.982457117625838,
            12.982457230578323,
            13.412763339589471,
            13.412763439807499,
            14.258723073589763,
            14.258723244993702,
            15.501397225179858,
            15.724122733133,
            15.724122888563056,
            16.49815135893503,
            16.49815150707292,
            16.95509427866183,
            17.63757854507642,
            17.82093944644764,
            17.82093944644764,
            18.044003897582172,
            18.40503983544388,
            19.03852959751571,
            19.038529725887035,
            20.573166934440234,
            20.573167053235814,
            22.951884412622622,
            25.4939342226678,
            25.493934462332785,
            25.587842567853272,
            25.663869642135985,
            27.0473992512493,
            27.047399477149142,
            29.1591369096969,
            29.193502327962992
        ]
    },
    "born_effective_charge": {
        "avg_abs_trace": 2.4409372463768118,
        "tensors": [
            [
                [
                    2.45866,
                    -0.21771,
                    -0.06158
                ],
                [
                    -0.21799,
                    2.71025,
                    -0.03566
                ],
                [
                    -0.11331,
                    -0.06552,
                    2.35691
                ]
            ],
            [
                [
                    2.45866,
                    0.21771,
                    0.06158
                ],
                [
                    0.21779,
                    2.7105,
                    -0.03528
                ],
                [
                    0.1134,
                    -0.06537,
                    2.35691
                ]
            ],
            [
                [
                    2.83552,
                    0.0,
                    0.0
                ],
                [
                    -0.00015,
                    2.33328,
                    0.0711
                ],
                [
                    -8e-05,
                    0.13089,
                    2.35691
                ]
            ],
            [
                [
                    4.91458,
                    0.0,
                    0.0
                ],
                [
                    -0.00034,
                    4.91448,
                    -0.0002
                ],
                [
                    0.0,
                    0.0,
                    7.01689
                ]
            ],
            [
                [
                    2.64007,
                    0.35483,
                    -0.31086
                ],
                [
                    0.35537,
                    3.05072,
                    0.17975
                ],
                [
                    0.23643,
                    -0.13651,
                    3.18154
                ]
            ],
            [
                [
                    3.25579,
                    0.0,
                    0.0
                ],
                [
                    0.00147,
                    2.43528,
                    -0.35859
                ],
                [
                    1e-05,
                    0.27301,
                    3.18154
                ]
            ],
            [
                [
                    2.64007,
                    -0.35483,
                    0.31086
                ],
                [
                    -0.35528,
                    3.05048,
                    0.17859
                ],
                [
                    -0.23644,
                    -0.1365,
                    3.18154
                ]
            ],
            [
                [
                    3.09061,
                    0.08484,
                    -4e-05
                ],
                [
                    -0.08493,
                    3.09012,
                    0.00012
                ],
                [
                    0.0,
                    0.0,
                    2.90531
                ]
            ],
            [
                [
                    3.09061,
                    -0.08484,
                    4e-05
                ],
                [
                    0.08464,
                    3.09001,
                    0.00013
                ],
                [
                    0.0,
                    0.0,
                    2.9051
                ]
            ],
            [
                [
                    -1.53812,
                    0.04303,
                    -0.32369
                ],
                [
                    0.11608,
                    -2.38301,
                    -0.73375
                ],
                [
                    -0.24162,
                    -0.83927,
                    -2.54238
                ]
            ],
            [
                [
                    -2.10268,
                    -0.44219,
                    0.79721
                ],
                [
                    -0.3691,
                    -1.81829,
                    0.08689
                ],
                [
                    0.84764,
                    0.21039,
                    -2.54238
                ]
            ],
            [
                [
                    -2.2406,
                    0.2892,
                    -0.47339
                ],
                [
                    0.36264,
                    -1.68065,
                    0.64715
                ],
                [
                    -0.60602,
                    0.62888,
                    -2.54238
                ]
            ],
            [
                [
                    -1.53812,
                    -0.04303,
                    0.32369
                ],
                [
                    -0.11606,
                    -2.38282,
                    -0.73313
                ],
                [
                    0.24137,
                    -0.83915,
                    -2.54237
                ]
            ],
            [
                [
                    -2.10268,
                    0.44219,
                    -0.79721
                ],
                [
                    0.36911,
                    -1.81815,
                    0.08593
                ],
                [
                    -0.8474,
                    0.21054,
                    -2.54237
                ]
            ],
            [
                [
                    -2.2406,
                    -0.2892,
                    0.47339
                ],
                [
                    -0.3626,
                    -1.68018,
                    0.64719
                ],
                [
                    0.60604,
                    0.6286,
                    -2.54237
                ]
            ],
            [
                [
                    -1.606,
                    0.30228,
                    -0.17861
                ],
                [
                    0.31618,
                    -2.52117,
                    -0.00504
                ],
                [
                    -0.19262,
                    0.00623,
                    -1.66411
                ]
            ],
            [
                [
                    -2.02467,
                    -0.55804,
                    0.09357
                ],
                [
                    -0.54382,
                    -2.10258,
                    -0.152
                ],
                [
                    0.09091,
                    -0.16993,
                    -1.66411
                ]
            ],
            [
                [
                    -2.5604,
                    0.23467,
                    0.08507
                ],
                [
                    0.24861,
                    -1.56703,
                    0.15709
                ],
                [
                    0.10171,
                    0.1637,
                    -1.66411
                ]
            ],
            [
                [
                    -1.61981,
                    0.02653,
                    4e-05
                ],
                [
                    -0.02669,
                    -1.62005,
                    -5e-05
                ],
                [
                    0.0,
                    0.0,
                    -2.1019
                ]
            ],
            [
                [
                    -1.61981,
                    -0.02653,
                    -4e-05
                ],
                [
                    0.0264,
                    -1.61994,
                    -8e-05
                ],
                [
                    0.0,
                    0.0,
                    -2.10183
                ]
            ],
            [
                [
                    -2.5604,
                    -0.23467,
                    -0.08507
                ],
                [
                    -0.24844,
                    -1.56726,
                    0.15694
                ],
                [
                    -0.10164,
                    0.16373,
                    -1.66411
                ]
            ],
            [
                [
                    -2.02467,
                    0.55804,
                    -0.09357
                ],
                [
                    0.54353,
                    -2.10293,
                    -0.152
                ],
                [
                    -0.09098,
                    -0.16989,
                    -1.66411
                ]
            ],
            [
                [
                    -1.606,
                    -0.30228,
                    0.17861
                ],
                [
                    -0.31642,
                    -2.52107,
                    -0.00509
                ],
                [
                    0.19262,
                    0.00616,
                    -1.66411
                ]
            ]
        ]
    },
    "band_gap": 4.1497,
    "is_direct": false,
    "formula": "Ca3TaGa3(SiO7)2"
}