{
    "mp_id": "mp-6434",
    "nelements": 4,
    "nsites": 28,
    "elements": [
        "Al",
        "O",
        "Rb",
        "Si"
    ],
    "structure": {
        "@module": "pymatgen.core.structure",
        "@class": "Structure",
        "charge": null,
        "lattice": {
            "matrix": [
                [
                    8.7490491,
                    0.0,
                    0.0
                ],
                [
                    0.0,
                    9.21443484,
                    0.0
                ],
                [
                    0.0,
                    0.0,
                    5.32900384
                ]
            ],
            "a": 8.7490491,
            "b": 9.21443484,
            "c": 5.32900384,
            "alpha": 90.0,
            "beta": 90.0,
            "gamma": 90.0,
            "volume": 429.61119538656436
        },
        "sites": [
            {
                "species": [
                    {
                        "element": "Rb",
                        "occu": 1
                    }
                ],
                "abc": [
                    0.00115187,
                    0.29332177,
                    0.4893817
                ],
                "xyz": [
                    0.010077767186817,
                    2.7027943368184664,
                    2.607916958525728
                ],
                "label": "Rb",
                "properties": {}
            },
            {
                "species": [
                    {
                        "element": "Rb",
                        "occu": 1
                    }
                ],
                "abc": [
                    0.99884813,
                    0.70667823,
                    0.9893817
                ],
                "xyz": [
                    8.738971332813183,
                    6.511640503181532,
                    5.272418878525729
                ],
                "label": "Rb",
                "properties": {}
            },
            {
                "species": [
                    {
                        "element": "Rb",
                        "occu": 1
                    }
                ],
                "abc": [
                    0.49884813,
                    0.79332177,
                    0.9893817
                ],
                "xyz": [
                    4.364446782813183,
                    7.310011756818467,
                    5.272418878525729
                ],
                "label": "Rb",
                "properties": {}
            },
            {
                "species": [
                    {
                        "element": "Rb",
                        "occu": 1
                    }
                ],
                "abc": [
                    0.50115187,
                    0.20667823,
                    0.4893817
                ],
                "xyz": [
                    4.384602317186817,
                    1.904423083181533,
                    2.607916958525728
                ],
                "label": "Rb",
                "properties": {}
            },
            {
                "species": [
                    {
                        "element": "Al",
                        "occu": 1
                    }
                ],
                "abc": [
                    0.81175007,
                    0.08275799,
                    0.01135351
                ],
                "xyz": [
                    7.102041219358437,
                    0.7625681063443716,
                    0.06050289838747841
                ],
                "label": "Al",
                "properties": {}
            },
            {
                "species": [
                    {
                        "element": "Al",
                        "occu": 1
                    }
                ],
                "abc": [
                    0.18824993,
                    0.91724201,
                    0.51135351
                ],
                "xyz": [
                    1.6470078806415631,
                    8.451866733655628,
                    2.7250048183874784
                ],
                "label": "Al",
                "properties": {}
            },
            {
                "species": [
                    {
                        "element": "Al",
                        "occu": 1
                    }
                ],
                "abc": [
                    0.68824993,
                    0.58275799,
                    0.51135351
                ],
                "xyz": [
                    6.021532430641564,
                    5.369785526344371,
                    2.7250048183874784
                ],
                "label": "Al",
                "properties": {}
            },
            {
                "species": [
                    {
                        "element": "Al",
                        "occu": 1
                    }
                ],
                "abc": [
                    0.31175007,
                    0.41724201,
                    0.01135351
                ],
                "xyz": [
                    2.727516669358437,
                    3.844649313655628,
                    0.06050289838747841
                ],
                "label": "Al",
                "properties": {}
            },
            {
                "species": [
                    {
                        "element": "Si",
                        "occu": 1
                    }
                ],
                "abc": [
                    0.69453379,
                    0.41631883,
                    0.01177194
                ],
                "xyz": [
                    6.07651023031909,
                    3.8361427317000367,
                    0.0627327134642496
                ],
                "label": "Si",
                "properties": {}
            },
            {
                "species": [
                    {
                        "element": "Si",
                        "occu": 1
                    }
                ],
                "abc": [
                    0.30546621,
                    0.58368117,
                    0.51177194
                ],
                "xyz": [
                    2.672538869680911,
                    5.378292108299962,
                    2.72723463346425
                ],
                "label": "Si",
                "properties": {}
            },
            {
                "species": [
                    {
                        "element": "Si",
                        "occu": 1
                    }
                ],
                "abc": [
                    0.80546621,
                    0.91631883,
                    0.51177194
                ],
                "xyz": [
                    7.047063419680911,
                    8.443360151700036,
                    2.72723463346425
                ],
                "label": "Si",
                "properties": {}
            },
            {
                "species": [
                    {
                        "element": "Si",
                        "occu": 1
                    }
                ],
                "abc": [
                    0.19453379,
                    0.08368117,
                    0.01177194
                ],
                "xyz": [
                    1.7019856803190891,
                    0.7710746882999627,
                    0.0627327134642496
                ],
                "label": "Si",
                "properties": {}
            },
            {
                "species": [
                    {
                        "element": "O",
                        "occu": 1
                    }
                ],
                "abc": [
                    0.75285704,
                    0.25632893,
                    0.09934147
                ],
                "xyz": [
                    6.586783208240664,
                    2.361926223091921,
                    0.5293910751012448
                ],
                "label": "O",
                "properties": {}
            },
            {
                "species": [
                    {
                        "element": "O",
                        "occu": 1
                    }
                ],
                "abc": [
                    0.24714296,
                    0.74367107,
                    0.59934147
                ],
                "xyz": [
                    2.1622658917593363,
                    6.852508616908078,
                    3.1938929951012454
                ],
                "label": "O",
                "properties": {}
            },
            {
                "species": [
                    {
                        "element": "O",
                        "occu": 1
                    }
                ],
                "abc": [
                    0.74714296,
                    0.75632893,
                    0.59934147
                ],
                "xyz": [
                    6.5367904417593365,
                    6.969143643091921,
                    3.1938929951012454
                ],
                "label": "O",
                "properties": {}
            },
            {
                "species": [
                    {
                        "element": "O",
                        "occu": 1
                    }
                ],
                "abc": [
                    0.25285704,
                    0.24367107,
                    0.09934147
                ],
                "xyz": [
                    2.212258658240664,
                    2.2452911969080787,
                    0.5293910751012448
                ],
                "label": "O",
                "properties": {}
            },
            {
                "species": [
                    {
                        "element": "O",
                        "occu": 1
                    }
                ],
                "abc": [
                    0.75953767,
                    0.53582924,
                    0.21395961
                ],
                "xyz": [
                    6.645232368129598,
                    4.937363617346721,
                    1.1401915832949026
                ],
                "label": "O",
                "properties": {}
            },
            {
                "species": [
                    {
                        "element": "O",
                        "occu": 1
                    }
                ],
                "abc": [
                    0.24046233,
                    0.46417076,
                    0.71395961
                ],
                "xyz": [
                    2.103816731870403,
                    4.277071222653278,
                    3.8046935032949025
                ],
                "label": "O",
                "properties": {}
            },
            {
                "species": [
                    {
                        "element": "O",
                        "occu": 1
                    }
                ],
                "abc": [
                    0.74046233,
                    0.03582924,
                    0.71395961
                ],
                "xyz": [
                    6.478341281870403,
                    0.33014619734672157,
                    3.8046935032949025
                ],
                "label": "O",
                "properties": {}
            },
            {
                "species": [
                    {
                        "element": "O",
                        "occu": 1
                    }
                ],
                "abc": [
                    0.25953767,
                    0.96417076,
                    0.21395961
                ],
                "xyz": [
                    2.270707818129597,
                    8.884288642653278,
                    1.1401915832949026
                ],
                "label": "O",
                "properties": {}
            },
            {
                "species": [
                    {
                        "element": "O",
                        "occu": 1
                    }
                ],
                "abc": [
                    0.76024828,
                    0.45762959,
                    0.7327116
                ],
                "xyz": [
                    6.651449529910549,
                    4.216798037910915,
                    3.9046229300125446
                ],
                "label": "O",
                "properties": {}
            },
            {
                "species": [
                    {
                        "element": "O",
                        "occu": 1
                    }
                ],
                "abc": [
                    0.23975172,
                    0.54237041,
                    0.2327116
                ],
                "xyz": [
                    2.0975995700894523,
                    4.997636802089084,
                    1.240121010012544
                ],
                "label": "O",
                "properties": {}
            },
            {
                "species": [
                    {
                        "element": "O",
                        "occu": 1
                    }
                ],
                "abc": [
                    0.73975172,
                    0.95762959,
                    0.2327116
                ],
                "xyz": [
                    6.472124120089452,
                    8.824015457910916,
                    1.240121010012544
                ],
                "label": "O",
                "properties": {}
            },
            {
                "species": [
                    {
                        "element": "O",
                        "occu": 1
                    }
                ],
                "abc": [
                    0.26024828,
                    0.04237041,
                    0.7327116
                ],
                "xyz": [
                    2.276924979910548,
                    0.39041938208908433,
                    3.9046229300125446
                ],
                "label": "O",
                "properties": {}
            },
            {
                "species": [
                    {
                        "element": "O",
                        "occu": 1
                    }
                ],
                "abc": [
                    0.0096642,
                    0.0837999,
                    0.00921217
                ],
                "xyz": [
                    0.08455256031222,
                    0.7721687181485158,
                    0.0490916893047328
                ],
                "label": "O",
                "properties": {}
            },
            {
                "species": [
                    {
                        "element": "O",
                        "occu": 1
                    }
                ],
                "abc": [
                    0.9903358,
                    0.9162001,
                    0.50921217
                ],
                "xyz": [
                    8.66449653968778,
                    8.442266121851484,
                    2.713593609304733
                ],
                "label": "O",
                "properties": {}
            },
            {
                "species": [
                    {
                        "element": "O",
                        "occu": 1
                    }
                ],
                "abc": [
                    0.4903358,
                    0.5837999,
                    0.50921217
                ],
                "xyz": [
                    4.28997198968778,
                    5.379386138148516,
                    2.713593609304733
                ],
                "label": "O",
                "properties": {}
            },
            {
                "species": [
                    {
                        "element": "O",
                        "occu": 1
                    }
                ],
                "abc": [
                    0.5096642,
                    0.4162001,
                    0.00921217
                ],
                "xyz": [
                    4.45907711031222,
                    3.8350487018514836,
                    0.0490916893047328
                ],
                "label": "O",
                "properties": {}
            }
        ]
    },
    "spacegroup": {
        "source": "spglib",
        "symbol": "Pna2_1",
        "number": 33,
        "point_group": "mm2",
        "crystal_system": "orthorhombic",
        "hall": "P 2c -2n"
    },
    "dielectric": {
        "epsilon_ionic": [
            [
                4.69806706,
                0.0,
                -7.99e-06
            ],
            [
                0.0,
                6.4912858,
                1.08e-06
            ],
            [
                -7.99e-06,
                1.08e-06,
                5.7033416
            ]
        ],
        "epsilon_ionic_avg": 5.630898153333333,
        "epsilon_ionic_eig": [
            4.698067059936493,
            5.703341600062025,
            6.49128580000148
        ],
        "epsilon_electronic": [
            [
                2.50794202,
                0.0,
                0.0
            ],
            [
                0.0,
                2.50769175,
                0.0
            ],
            [
                0.0,
                0.0,
                2.52623777
            ]
        ],
        "epsilon_electronic_avg": 2.5139571800000002,
        "epsilon_electronic_eig": [
            2.50794202,
            2.50769175,
            2.52623777
        ]
    },
    "phonon": {
        "lowest_freq": -0.04082444319312668,
        "frequency": [
            -0.04082444319312668,
            -0.028583784406712723,
            -0.02848188811969119,
            0.502387578737196,
            1.2997710860920721,
            1.322482519475406,
            1.3569083356155915,
            1.4245110170717115,
            1.8105368866190694,
            2.045743835916274,
            2.0664830028940364,
            2.222716687092057,
            2.244263311439606,
            2.358181954364876,
            2.3826359182202093,
            2.536203163886026,
            2.6969399679467045,
            2.7345075581303195,
            2.880489101386772,
            3.105637971501958,
            3.7021401105671083,
            4.117170226954825,
            4.715171469115509,
            4.79532740550745,
            5.119620247907494,
            5.508131701321767,
            5.689883246002532,
            6.125157030983481,
            6.3264294992566175,
            6.552930772207857,
            7.177212529426511,
            7.64386305427388,
            7.857035460183106,
            8.070580179885463,
            8.393949857781273,
            8.6787001147365,
            9.37926177996415,
            9.715392084113475,
            9.730348011085963,
            10.253419516482579,
            10.412584920075032,
            10.622738037762144,
            10.85217092826962,
            11.043665808357442,
            11.128227821773239,
            11.150277220690059,
            11.320705391838802,
            12.469164159057021,
            12.493421776228086,
            12.795468939988377,
            12.80740697489409,
            12.951823342779964,
            13.088194496283464,
            13.52143937656968,
            15.709213652714237,
            15.975851908855287,
            17.440750637314494,
            17.73107644831477,
            18.12691054263064,
            19.77233098645598,
            19.80351978688914,
            19.9380967443158,
            20.11703834494403,
            20.262262413098597,
            20.48293847836128,
            20.72877032359219,
            21.364107761688935,
            22.11513810900748,
            27.661314472548487,
            27.666575835432834,
            27.685820353577576,
            27.69922009894232,
            27.87702160861752,
            28.244009621200043,
            28.713249601853803,
            29.374168404206575,
            29.783495874660737,
            30.216571686689157,
            30.298801252932275,
            31.31181131921431,
            31.35918375166285,
            32.40317952452344,
            32.92059777473491,
            33.332735449540884
        ]
    },
    "born_effective_charge": {
        "avg_abs_trace": 1.949986904761905,
        "tensors": [
            [
                [
                    1.33297,
                    0.00398,
                    0.00376
                ],
                [
                    0.0037,
                    1.19731,
                    0.051
                ],
                [
                    0.0019,
                    0.05128,
                    1.21255
                ]
            ],
            [
                [
                    1.33296,
                    0.00398,
                    -0.00376
                ],
                [
                    0.00368,
                    1.19733,
                    -0.05101
                ],
                [
                    -0.0019,
                    -0.05128,
                    1.21255
                ]
            ],
            [
                [
                    1.33296,
                    -0.00398,
                    -0.00376
                ],
                [
                    -0.0037,
                    1.19731,
                    0.051
                ],
                [
                    -0.0019,
                    0.05128,
                    1.21255
                ]
            ],
            [
                [
                    1.33297,
                    -0.00398,
                    0.00376
                ],
                [
                    -0.00368,
                    1.19733,
                    -0.05101
                ],
                [
                    0.0019,
                    -0.05128,
                    1.21255
                ]
            ],
            [
                [
                    2.5257,
                    -0.24059,
                    -0.06044
                ],
                [
                    -0.04708,
                    2.63041,
                    0.15298
                ],
                [
                    -0.01147,
                    -0.08761,
                    2.6743
                ]
            ],
            [
                [
                    2.5257,
                    -0.24059,
                    0.06044
                ],
                [
                    -0.04708,
                    2.63041,
                    -0.15298
                ],
                [
                    0.01147,
                    0.08761,
                    2.6743
                ]
            ],
            [
                [
                    2.5257,
                    0.24059,
                    0.06044
                ],
                [
                    0.04708,
                    2.63041,
                    0.15298
                ],
                [
                    0.01147,
                    -0.08761,
                    2.6743
                ]
            ],
            [
                [
                    2.5257,
                    0.24059,
                    -0.06044
                ],
                [
                    0.04708,
                    2.63041,
                    -0.15298
                ],
                [
                    -0.01147,
                    0.08761,
                    2.6743
                ]
            ],
            [
                [
                    2.89675,
                    -0.26697,
                    0.07583
                ],
                [
                    -0.06747,
                    2.9838,
                    -0.13891
                ],
                [
                    0.01739,
                    0.04683,
                    3.02108
                ]
            ],
            [
                [
                    2.89674,
                    -0.26698,
                    -0.07583
                ],
                [
                    -0.06747,
                    2.9838,
                    0.13891
                ],
                [
                    -0.01739,
                    -0.04683,
                    3.02108
                ]
            ],
            [
                [
                    2.89674,
                    0.26698,
                    -0.07583
                ],
                [
                    0.06747,
                    2.9838,
                    -0.13891
                ],
                [
                    -0.01739,
                    0.04683,
                    3.02108
                ]
            ],
            [
                [
                    2.89675,
                    0.26697,
                    0.07583
                ],
                [
                    0.06747,
                    2.9838,
                    0.13891
                ],
                [
                    0.01739,
                    -0.04683,
                    3.02108
                ]
            ],
            [
                [
                    -1.39237,
                    0.66521,
                    -0.03777
                ],
                [
                    0.4818,
                    -2.47835,
                    0.07611
                ],
                [
                    -0.03885,
                    0.09148,
                    -1.31204
                ]
            ],
            [
                [
                    -1.39237,
                    0.66521,
                    0.03777
                ],
                [
                    0.4818,
                    -2.47835,
                    -0.07611
                ],
                [
                    0.03885,
                    -0.09148,
                    -1.31204
                ]
            ],
            [
                [
                    -1.39237,
                    -0.66521,
                    0.03777
                ],
                [
                    -0.4818,
                    -2.47835,
                    0.07611
                ],
                [
                    0.03885,
                    0.09148,
                    -1.31204
                ]
            ],
            [
                [
                    -1.39237,
                    -0.66521,
                    -0.03777
                ],
                [
                    -0.4818,
                    -2.47835,
                    -0.07611
                ],
                [
                    -0.03885,
                    -0.09148,
                    -1.31204
                ]
            ],
            [
                [
                    -1.35534,
                    -0.15072,
                    -0.00526
                ],
                [
                    -0.14836,
                    -1.63094,
                    -0.50683
                ],
                [
                    -0.00668,
                    -0.487,
                    -2.07685
                ]
            ],
            [
                [
                    -1.35533,
                    -0.15072,
                    0.00526
                ],
                [
                    -0.14836,
                    -1.63094,
                    0.50683
                ],
                [
                    0.00668,
                    0.487,
                    -2.07685
                ]
            ],
            [
                [
                    -1.35533,
                    0.15072,
                    0.00526
                ],
                [
                    0.14836,
                    -1.63094,
                    -0.50683
                ],
                [
                    0.00668,
                    -0.487,
                    -2.07685
                ]
            ],
            [
                [
                    -1.35534,
                    0.15072,
                    -0.00526
                ],
                [
                    0.14836,
                    -1.63094,
                    0.50683
                ],
                [
                    -0.00668,
                    0.487,
                    -2.07685
                ]
            ],
            [
                [
                    -1.35486,
                    0.08293,
                    0.12518
                ],
                [
                    0.06138,
                    -1.5023,
                    0.43106
                ],
                [
                    0.14854,
                    0.42993,
                    -2.209
                ]
            ],
            [
                [
                    -1.35487,
                    0.08293,
                    -0.12518
                ],
                [
                    0.06138,
                    -1.5023,
                    -0.43106
                ],
                [
                    -0.14854,
                    -0.42993,
                    -2.209
                ]
            ],
            [
                [
                    -1.35487,
                    -0.08293,
                    -0.12518
                ],
                [
                    -0.06138,
                    -1.5023,
                    0.43106
                ],
                [
                    -0.14854,
                    0.42993,
                    -2.209
                ]
            ],
            [
                [
                    -1.35486,
                    -0.08293,
                    0.12518
                ],
                [
                    -0.06138,
                    -1.5023,
                    -0.43106
                ],
                [
                    0.14854,
                    -0.42993,
                    -2.209
                ]
            ],
            [
                [
                    -2.65284,
                    -0.00861,
                    -0.00321
                ],
                [
                    -0.00872,
                    -1.19993,
                    -0.0349
                ],
                [
                    -0.00194,
                    -0.00494,
                    -1.31004
                ]
            ],
            [
                [
                    -2.65283,
                    -0.00861,
                    0.00321
                ],
                [
                    -0.00873,
                    -1.19993,
                    0.0349
                ],
                [
                    0.00194,
                    0.00494,
                    -1.31004
                ]
            ],
            [
                [
                    -2.65283,
                    0.00861,
                    0.00321
                ],
                [
                    0.00872,
                    -1.19993,
                    -0.0349
                ],
                [
                    0.00194,
                    -0.00494,
                    -1.31004
                ]
            ],
            [
                [
                    -2.65284,
                    0.00861,
                    -0.00321
                ],
                [
                    0.00873,
                    -1.19993,
                    0.0349
                ],
                [
                    -0.00194,
                    0.00494,
                    -1.31004
                ]
            ]
        ]
    },
    "band_gap": 4.468100000000001,
    "is_direct": true,
    "formula": "RbAlSiO4"
}