{
    "mp_id": "mp-6224",
    "nelements": 4,
    "nsites": 28,
    "elements": [
        "Li",
        "O",
        "Sc",
        "Si"
    ],
    "structure": {
        "@module": "pymatgen.core.structure",
        "@class": "Structure",
        "charge": null,
        "lattice": {
            "matrix": [
                [
                    10.39960202,
                    0.0,
                    0.0
                ],
                [
                    0.0,
                    5.93954968,
                    0.0
                ],
                [
                    0.0,
                    0.0,
                    4.80674206
                ]
            ],
            "a": 10.39960202,
            "b": 5.93954968,
            "c": 4.80674206,
            "alpha": 90.0,
            "beta": 90.0,
            "gamma": 90.0,
            "volume": 296.9074236663401
        },
        "sites": [
            {
                "species": [
                    {
                        "element": "Li",
                        "occu": 1
                    }
                ],
                "abc": [
                    0.0,
                    0.0,
                    0.0
                ],
                "xyz": [
                    0.0,
                    0.0,
                    0.0
                ],
                "label": "Li",
                "properties": {}
            },
            {
                "species": [
                    {
                        "element": "Li",
                        "occu": 1
                    }
                ],
                "abc": [
                    0.5,
                    0.0,
                    0.5
                ],
                "xyz": [
                    5.19980101,
                    0.0,
                    2.40337103
                ],
                "label": "Li",
                "properties": {}
            },
            {
                "species": [
                    {
                        "element": "Li",
                        "occu": 1
                    }
                ],
                "abc": [
                    0.0,
                    0.5,
                    0.0
                ],
                "xyz": [
                    0.0,
                    2.96977484,
                    0.0
                ],
                "label": "Li",
                "properties": {}
            },
            {
                "species": [
                    {
                        "element": "Li",
                        "occu": 1
                    }
                ],
                "abc": [
                    0.5,
                    0.5,
                    0.5
                ],
                "xyz": [
                    5.19980101,
                    2.96977484,
                    2.40337103
                ],
                "label": "Li",
                "properties": {}
            },
            {
                "species": [
                    {
                        "element": "Sc",
                        "occu": 1
                    }
                ],
                "abc": [
                    0.22639757,
                    0.25,
                    0.50267289
                ],
                "xyz": [
                    2.3544446262950913,
                    1.48488742,
                    2.4162189227847537
                ],
                "label": "Sc",
                "properties": {}
            },
            {
                "species": [
                    {
                        "element": "Sc",
                        "occu": 1
                    }
                ],
                "abc": [
                    0.72639757,
                    0.25,
                    0.99732711
                ],
                "xyz": [
                    7.554245636295092,
                    1.48488742,
                    4.793894167215247
                ],
                "label": "Sc",
                "properties": {}
            },
            {
                "species": [
                    {
                        "element": "Sc",
                        "occu": 1
                    }
                ],
                "abc": [
                    0.77360243,
                    0.75,
                    0.49732711
                ],
                "xyz": [
                    8.045157393704908,
                    4.45466226,
                    2.3905231372152467
                ],
                "label": "Sc",
                "properties": {}
            },
            {
                "species": [
                    {
                        "element": "Sc",
                        "occu": 1
                    }
                ],
                "abc": [
                    0.27360243,
                    0.75,
                    0.00267289
                ],
                "xyz": [
                    2.8453563837049085,
                    4.45466226,
                    0.0128478927847534
                ],
                "label": "Sc",
                "properties": {}
            },
            {
                "species": [
                    {
                        "element": "Si",
                        "occu": 1
                    }
                ],
                "abc": [
                    0.09129232,
                    0.75,
                    0.56369032
                ],
                "xyz": [
                    0.9494037954824863,
                    4.45466226,
                    2.7095139699588593
                ],
                "label": "Si",
                "properties": {}
            },
            {
                "species": [
                    {
                        "element": "Si",
                        "occu": 1
                    }
                ],
                "abc": [
                    0.90870768,
                    0.25,
                    0.43630968
                ],
                "xyz": [
                    9.450198224517514,
                    1.48488742,
                    2.0972280900411406
                ],
                "label": "Si",
                "properties": {}
            },
            {
                "species": [
                    {
                        "element": "Si",
                        "occu": 1
                    }
                ],
                "abc": [
                    0.59129232,
                    0.75,
                    0.93630968
                ],
                "xyz": [
                    6.149204805482486,
                    4.45466226,
                    4.500599120041142
                ],
                "label": "Si",
                "properties": {}
            },
            {
                "species": [
                    {
                        "element": "Si",
                        "occu": 1
                    }
                ],
                "abc": [
                    0.40870768,
                    0.25,
                    0.06369032
                ],
                "xyz": [
                    4.2503972145175135,
                    1.48488742,
                    0.3061429399588592
                ],
                "label": "Si",
                "properties": {}
            },
            {
                "species": [
                    {
                        "element": "O",
                        "occu": 1
                    }
                ],
                "abc": [
                    0.6696654,
                    0.53798686,
                    0.78505828
                ],
                "xyz": [
                    6.964253646564107,
                    3.1953996821572046,
                    3.773572654027257
                ],
                "label": "O",
                "properties": {}
            },
            {
                "species": [
                    {
                        "element": "O",
                        "occu": 1
                    }
                ],
                "abc": [
                    0.3303346,
                    0.46201314,
                    0.21494172
                ],
                "xyz": [
                    3.435348373435892,
                    2.7441499978427952,
                    1.0331694059727432
                ],
                "label": "O",
                "properties": {}
            },
            {
                "species": [
                    {
                        "element": "O",
                        "occu": 1
                    }
                ],
                "abc": [
                    0.1696654,
                    0.53798686,
                    0.71494172
                ],
                "xyz": [
                    1.7644526365641078,
                    3.1953996821572046,
                    3.4365404359727436
                ],
                "label": "O",
                "properties": {}
            },
            {
                "species": [
                    {
                        "element": "O",
                        "occu": 1
                    }
                ],
                "abc": [
                    0.6696654,
                    0.96201314,
                    0.78505828
                ],
                "xyz": [
                    6.964253646564107,
                    5.713924837842796,
                    3.773572654027257
                ],
                "label": "O",
                "properties": {}
            },
            {
                "species": [
                    {
                        "element": "O",
                        "occu": 1
                    }
                ],
                "abc": [
                    0.8303346,
                    0.03798686,
                    0.28505828
                ],
                "xyz": [
                    8.635149383435891,
                    0.22562484215720477,
                    1.370201624027257
                ],
                "label": "O",
                "properties": {}
            },
            {
                "species": [
                    {
                        "element": "O",
                        "occu": 1
                    }
                ],
                "abc": [
                    0.90039221,
                    0.25,
                    0.77198602
                ],
                "xyz": [
                    9.363720645908264,
                    1.48488742,
                    3.710737672066002
                ],
                "label": "O",
                "properties": {}
            },
            {
                "species": [
                    {
                        "element": "O",
                        "occu": 1
                    }
                ],
                "abc": [
                    0.8303346,
                    0.46201314,
                    0.28505828
                ],
                "xyz": [
                    8.635149383435891,
                    2.7441499978427952,
                    1.370201624027257
                ],
                "label": "O",
                "properties": {}
            },
            {
                "species": [
                    {
                        "element": "O",
                        "occu": 1
                    }
                ],
                "abc": [
                    0.3303346,
                    0.03798686,
                    0.21494172
                ],
                "xyz": [
                    3.435348373435892,
                    0.22562484215720477,
                    1.0331694059727432
                ],
                "label": "O",
                "properties": {}
            },
            {
                "species": [
                    {
                        "element": "O",
                        "occu": 1
                    }
                ],
                "abc": [
                    0.09960779,
                    0.75,
                    0.22801398
                ],
                "xyz": [
                    1.0358813740917359,
                    4.45466226,
                    1.096004387933999
                ],
                "label": "O",
                "properties": {}
            },
            {
                "species": [
                    {
                        "element": "O",
                        "occu": 1
                    }
                ],
                "abc": [
                    0.40039221,
                    0.25,
                    0.72801398
                ],
                "xyz": [
                    4.163919635908265,
                    1.48488742,
                    3.4993754179339986
                ],
                "label": "O",
                "properties": {}
            },
            {
                "species": [
                    {
                        "element": "O",
                        "occu": 1
                    }
                ],
                "abc": [
                    0.44711058,
                    0.75,
                    0.8030844
                ],
                "xyz": [
                    4.649772090931371,
                    4.45466226,
                    3.8602195632098644
                ],
                "label": "O",
                "properties": {}
            },
            {
                "species": [
                    {
                        "element": "O",
                        "occu": 1
                    }
                ],
                "abc": [
                    0.59960779,
                    0.75,
                    0.27198602
                ],
                "xyz": [
                    6.235682384091735,
                    4.45466226,
                    1.3073666420660013
                ],
                "label": "O",
                "properties": {}
            },
            {
                "species": [
                    {
                        "element": "O",
                        "occu": 1
                    }
                ],
                "abc": [
                    0.94711058,
                    0.75,
                    0.6969156
                ],
                "xyz": [
                    9.849573100931371,
                    4.45466226,
                    3.349893526790136
                ],
                "label": "O",
                "properties": {}
            },
            {
                "species": [
                    {
                        "element": "O",
                        "occu": 1
                    }
                ],
                "abc": [
                    0.05288942,
                    0.25,
                    0.3030844
                ],
                "xyz": [
                    0.5500289190686284,
                    1.48488742,
                    1.456848533209864
                ],
                "label": "O",
                "properties": {}
            },
            {
                "species": [
                    {
                        "element": "O",
                        "occu": 1
                    }
                ],
                "abc": [
                    0.55288942,
                    0.25,
                    0.1969156
                ],
                "xyz": [
                    5.749829929068627,
                    1.48488742,
                    0.946522496790136
                ],
                "label": "O",
                "properties": {}
            },
            {
                "species": [
                    {
                        "element": "O",
                        "occu": 1
                    }
                ],
                "abc": [
                    0.1696654,
                    0.96201314,
                    0.71494172
                ],
                "xyz": [
                    1.7644526365641078,
                    5.713924837842796,
                    3.4365404359727436
                ],
                "label": "O",
                "properties": {}
            }
        ]
    },
    "spacegroup": {
        "source": "spglib",
        "symbol": "Pnma",
        "number": 62,
        "point_group": "mmm",
        "crystal_system": "orthorhombic",
        "hall": "-P 2ac 2n"
    },
    "dielectric": {
        "epsilon_ionic": [
            [
                9.08664052,
                0.0,
                0.0
            ],
            [
                0.0,
                8.77522829,
                1e-08
            ],
            [
                0.0,
                1e-08,
                6.23375275
            ]
        ],
        "epsilon_ionic_avg": 8.031873853333332,
        "epsilon_ionic_eig": [
            6.23375275,
            8.77522829,
            9.08664052
        ],
        "epsilon_electronic": [
            [
                3.59204634,
                0.0,
                0.0
            ],
            [
                0.0,
                3.52528896,
                -0.0
            ],
            [
                0.0,
                -0.0,
                3.36511163
            ]
        ],
        "epsilon_electronic_avg": 3.4941489766666667,
        "epsilon_electronic_eig": [
            3.59204634,
            3.52528896,
            3.36511163
        ]
    },
    "phonon": {
        "lowest_freq": -0.09239305262575992,
        "frequency": [
            -0.09239305262575992,
            -0.06448722976588604,
            -0.043397844121026354,
            3.2600255518864394,
            3.5053688257804554,
            3.7651401525099555,
            4.777411069060758,
            5.0105089718726825,
            5.076851340139992,
            5.427774636676985,
            5.553137153429681,
            5.75470597550141,
            5.785751609007493,
            5.956671332277698,
            6.173754238355167,
            6.177283020507092,
            6.341975940743631,
            6.65998334979647,
            6.660394249630381,
            7.498122510456377,
            7.501464888244945,
            7.628174274913455,
            7.6769378996435025,
            7.71888695444334,
            7.947921936393941,
            8.09004384192711,
            8.199812932710362,
            8.263970976585535,
            8.310270163411902,
            8.39229890738192,
            8.568810358010001,
            8.840048189931206,
            9.40935107519636,
            9.432137148704019,
            9.508040407919278,
            9.86031133510303,
            9.8894786786425,
            9.935112827995685,
            10.35559154789727,
            10.410456907299789,
            10.46284461195733,
            10.678987129032308,
            10.824529745212219,
            11.217929693663589,
            11.708406613043246,
            12.043411866042213,
            12.61388081452593,
            12.791806970128237,
            12.817673207537712,
            12.911896893163561,
            13.167831051107925,
            13.27726628984857,
            13.30309416019874,
            13.449797193266145,
            13.522322790863116,
            13.961708394880105,
            14.261016316745826,
            14.736016914047065,
            15.298945023801387,
            15.871611593675626,
            15.90757463270458,
            15.957288739473091,
            16.848843214503354,
            17.2674585532057,
            17.34814364825697,
            17.731859277213744,
            18.913118104428975,
            19.386834488188796,
            23.722043594768664,
            23.901855890138513,
            24.006622397662802,
            24.21832685414015,
            24.760832997588448,
            24.85958248220141,
            24.940266620588424,
            25.606821690864447,
            26.418494469274158,
            26.48336817681152,
            27.22678026685797,
            28.02022096050678,
            28.385356736646948,
            28.855572395019912,
            29.25301218649304,
            30.887500175089837
        ]
    },
    "born_effective_charge": {
        "avg_abs_trace": 2.3411723809523814,
        "tensors": [
            [
                [
                    1.1073,
                    -0.16098,
                    0.0611
                ],
                [
                    -0.10713,
                    1.03738,
                    0.07539
                ],
                [
                    -0.00643,
                    0.13681,
                    1.2431
                ]
            ],
            [
                [
                    1.1073,
                    -0.16098,
                    -0.0611
                ],
                [
                    -0.10713,
                    1.03738,
                    -0.07539
                ],
                [
                    0.00643,
                    -0.13681,
                    1.2431
                ]
            ],
            [
                [
                    1.1073,
                    0.16098,
                    0.0611
                ],
                [
                    0.10713,
                    1.03738,
                    -0.07539
                ],
                [
                    -0.00643,
                    -0.13681,
                    1.2431
                ]
            ],
            [
                [
                    1.1073,
                    0.16098,
                    -0.0611
                ],
                [
                    0.10713,
                    1.03738,
                    0.07539
                ],
                [
                    0.00643,
                    0.13681,
                    1.2431
                ]
            ],
            [
                [
                    4.07536,
                    -0.0,
                    0.20785
                ],
                [
                    4e-05,
                    4.1588,
                    -0.00013
                ],
                [
                    -0.06279,
                    -0.0,
                    3.53076
                ]
            ],
            [
                [
                    4.07536,
                    -0.0,
                    -0.20785
                ],
                [
                    4e-05,
                    4.1588,
                    0.00013
                ],
                [
                    0.06292,
                    -0.0,
                    3.53078
                ]
            ],
            [
                [
                    4.07525,
                    -0.0,
                    0.20777
                ],
                [
                    -4e-05,
                    4.1588,
                    0.00013
                ],
                [
                    -0.06292,
                    -0.0,
                    3.53078
                ]
            ],
            [
                [
                    4.07525,
                    -0.0,
                    -0.20777
                ],
                [
                    -4e-05,
                    4.1588,
                    -0.00013
                ],
                [
                    0.06279,
                    -0.0,
                    3.53076
                ]
            ],
            [
                [
                    3.41429,
                    -0.0,
                    -0.31174
                ],
                [
                    -2e-05,
                    3.02069,
                    -4e-05
                ],
                [
                    0.19559,
                    -0.0,
                    2.99472
                ]
            ],
            [
                [
                    3.41428,
                    -0.0,
                    -0.31173
                ],
                [
                    2e-05,
                    3.02069,
                    4e-05
                ],
                [
                    0.19547,
                    -0.0,
                    2.99465
                ]
            ],
            [
                [
                    3.41429,
                    -0.0,
                    0.31174
                ],
                [
                    -2e-05,
                    3.02069,
                    4e-05
                ],
                [
                    -0.19547,
                    -0.0,
                    2.99465
                ]
            ],
            [
                [
                    3.41428,
                    -0.0,
                    0.31173
                ],
                [
                    2e-05,
                    3.02069,
                    -4e-05
                ],
                [
                    -0.19559,
                    -0.0,
                    2.99472
                ]
            ],
            [
                [
                    -1.73563,
                    0.26764,
                    0.28314
                ],
                [
                    0.33087,
                    -2.69671,
                    0.49151
                ],
                [
                    0.32451,
                    0.44509,
                    -1.89137
                ]
            ],
            [
                [
                    -1.73565,
                    0.26772,
                    0.28309
                ],
                [
                    0.33085,
                    -2.69673,
                    0.49174
                ],
                [
                    0.32443,
                    0.4451,
                    -1.8913
                ]
            ],
            [
                [
                    -1.73563,
                    0.26764,
                    -0.28314
                ],
                [
                    0.33087,
                    -2.69671,
                    -0.49151
                ],
                [
                    -0.32443,
                    -0.4451,
                    -1.8913
                ]
            ],
            [
                [
                    -1.73563,
                    -0.26764,
                    0.28314
                ],
                [
                    -0.33085,
                    -2.69673,
                    -0.49174
                ],
                [
                    0.32451,
                    -0.44509,
                    -1.89137
                ]
            ],
            [
                [
                    -1.73565,
                    -0.26772,
                    -0.28309
                ],
                [
                    -0.33087,
                    -2.69671,
                    0.49151
                ],
                [
                    -0.32451,
                    0.44509,
                    -1.89137
                ]
            ],
            [
                [
                    -1.98494,
                    -0.0,
                    0.55236
                ],
                [
                    0.0001,
                    -1.37312,
                    -6e-05
                ],
                [
                    0.51056,
                    -0.0,
                    -2.46156
                ]
            ],
            [
                [
                    -1.73565,
                    0.26772,
                    -0.28309
                ],
                [
                    0.33085,
                    -2.69673,
                    -0.49174
                ],
                [
                    -0.32451,
                    -0.44509,
                    -1.89137
                ]
            ],
            [
                [
                    -1.73565,
                    -0.26772,
                    0.28309
                ],
                [
                    -0.33087,
                    -2.69671,
                    -0.49151
                ],
                [
                    0.32443,
                    -0.4451,
                    -1.8913
                ]
            ],
            [
                [
                    -1.98495,
                    -0.0,
                    0.55252
                ],
                [
                    -0.0001,
                    -1.37312,
                    6e-05
                ],
                [
                    0.51085,
                    -0.0,
                    -2.4613
                ]
            ],
            [
                [
                    -1.98494,
                    -0.0,
                    -0.55236
                ],
                [
                    0.0001,
                    -1.37312,
                    6e-05
                ],
                [
                    -0.51085,
                    -0.0,
                    -2.4613
                ]
            ],
            [
                [
                    -3.14067,
                    -0.0,
                    0.18173
                ],
                [
                    -6e-05,
                    -1.4503,
                    -1e-05
                ],
                [
                    0.24919,
                    -0.0,
                    -1.52446
                ]
            ],
            [
                [
                    -1.98495,
                    -0.0,
                    -0.55252
                ],
                [
                    -0.0001,
                    -1.37312,
                    -6e-05
                ],
                [
                    -0.51056,
                    -0.0,
                    -2.46156
                ]
            ],
            [
                [
                    -3.14067,
                    -0.0,
                    -0.18173
                ],
                [
                    -6e-05,
                    -1.4503,
                    1e-05
                ],
                [
                    -0.24909,
                    -0.0,
                    -1.52445
                ]
            ],
            [
                [
                    -3.14066,
                    -0.0,
                    -0.1818
                ],
                [
                    6e-05,
                    -1.4503,
                    -1e-05
                ],
                [
                    -0.24919,
                    -0.0,
                    -1.52446
                ]
            ],
            [
                [
                    -3.14066,
                    -0.0,
                    0.1818
                ],
                [
                    6e-05,
                    -1.4503,
                    1e-05
                ],
                [
                    0.24909,
                    -0.0,
                    -1.52445
                ]
            ],
            [
                [
                    -1.73563,
                    -0.26764,
                    -0.28314
                ],
                [
                    -0.33085,
                    -2.69673,
                    0.49174
                ],
                [
                    -0.32443,
                    0.4451,
                    -1.8913
                ]
            ]
        ]
    },
    "band_gap": 4.6178,
    "is_direct": false,
    "formula": "LiScSiO4"
}