{
    "mp_id": "mp-6228",
    "nelements": 4,
    "nsites": 18,
    "elements": [
        "Ge",
        "Na",
        "O",
        "Ti"
    ],
    "structure": {
        "@module": "pymatgen.core.structure",
        "@class": "Structure",
        "charge": null,
        "lattice": {
            "matrix": [
                [
                    6.71337066,
                    0.0,
                    0.0
                ],
                [
                    0.0,
                    6.71337066,
                    0.0
                ],
                [
                    0.0,
                    0.0,
                    5.10653096
                ]
            ],
            "a": 6.71337066,
            "b": 6.71337066,
            "c": 5.10653096,
            "alpha": 90.0,
            "beta": 90.0,
            "gamma": 90.0,
            "volume": 230.14800874805994
        },
        "sites": [
            {
                "species": [
                    {
                        "element": "Na",
                        "occu": 1
                    }
                ],
                "abc": [
                    0.25,
                    0.75,
                    0.0
                ],
                "xyz": [
                    1.678342665,
                    5.035027995,
                    0.0
                ],
                "label": "Na",
                "properties": {}
            },
            {
                "species": [
                    {
                        "element": "Na",
                        "occu": 1
                    }
                ],
                "abc": [
                    0.75,
                    0.75,
                    0.0
                ],
                "xyz": [
                    5.035027995,
                    5.035027995,
                    0.0
                ],
                "label": "Na",
                "properties": {}
            },
            {
                "species": [
                    {
                        "element": "Na",
                        "occu": 1
                    }
                ],
                "abc": [
                    0.75,
                    0.25,
                    0.0
                ],
                "xyz": [
                    5.035027995,
                    1.678342665,
                    0.0
                ],
                "label": "Na",
                "properties": {}
            },
            {
                "species": [
                    {
                        "element": "Na",
                        "occu": 1
                    }
                ],
                "abc": [
                    0.25,
                    0.25,
                    0.0
                ],
                "xyz": [
                    1.678342665,
                    1.678342665,
                    0.0
                ],
                "label": "Na",
                "properties": {}
            },
            {
                "species": [
                    {
                        "element": "Ti",
                        "occu": 1
                    }
                ],
                "abc": [
                    0.0,
                    0.5,
                    0.57734143
                ],
                "xyz": [
                    0.0,
                    3.35668533,
                    2.948211886785673
                ],
                "label": "Ti",
                "properties": {}
            },
            {
                "species": [
                    {
                        "element": "Ti",
                        "occu": 1
                    }
                ],
                "abc": [
                    0.5,
                    0.0,
                    0.42265857
                ],
                "xyz": [
                    3.35668533,
                    0.0,
                    2.158319073214327
                ],
                "label": "Ti",
                "properties": {}
            },
            {
                "species": [
                    {
                        "element": "Ge",
                        "occu": 1
                    }
                ],
                "abc": [
                    0.5,
                    0.5,
                    0.5
                ],
                "xyz": [
                    3.35668533,
                    3.35668533,
                    2.55326548
                ],
                "label": "Ge",
                "properties": {}
            },
            {
                "species": [
                    {
                        "element": "Ge",
                        "occu": 1
                    }
                ],
                "abc": [
                    0.0,
                    0.0,
                    0.5
                ],
                "xyz": [
                    0.0,
                    0.0,
                    2.55326548
                ],
                "label": "Ge",
                "properties": {}
            },
            {
                "species": [
                    {
                        "element": "O",
                        "occu": 1
                    }
                ],
                "abc": [
                    0.0,
                    0.21597144,
                    0.70240194
                ],
                "xyz": [
                    0.0,
                    1.4498963286939504,
                    3.586837252974062
                ],
                "label": "O",
                "properties": {}
            },
            {
                "species": [
                    {
                        "element": "O",
                        "occu": 1
                    }
                ],
                "abc": [
                    0.0,
                    0.78402856,
                    0.70240194
                ],
                "xyz": [
                    0.0,
                    5.26347433130605,
                    3.586837252974062
                ],
                "label": "O",
                "properties": {}
            },
            {
                "species": [
                    {
                        "element": "O",
                        "occu": 1
                    }
                ],
                "abc": [
                    0.71597144,
                    0.5,
                    0.70240194
                ],
                "xyz": [
                    4.8065816586939505,
                    3.35668533,
                    3.586837252974062
                ],
                "label": "O",
                "properties": {}
            },
            {
                "species": [
                    {
                        "element": "O",
                        "occu": 1
                    }
                ],
                "abc": [
                    0.28402856,
                    0.5,
                    0.70240194
                ],
                "xyz": [
                    1.9067890013060496,
                    3.35668533,
                    3.586837252974062
                ],
                "label": "O",
                "properties": {}
            },
            {
                "species": [
                    {
                        "element": "O",
                        "occu": 1
                    }
                ],
                "abc": [
                    0.21597144,
                    0.0,
                    0.29759806
                ],
                "xyz": [
                    1.4498963286939504,
                    0.0,
                    1.5196937070259375
                ],
                "label": "O",
                "properties": {}
            },
            {
                "species": [
                    {
                        "element": "O",
                        "occu": 1
                    }
                ],
                "abc": [
                    0.5,
                    0.71597144,
                    0.29759806
                ],
                "xyz": [
                    3.35668533,
                    4.8065816586939505,
                    1.5196937070259375
                ],
                "label": "O",
                "properties": {}
            },
            {
                "species": [
                    {
                        "element": "O",
                        "occu": 1
                    }
                ],
                "abc": [
                    0.5,
                    0.28402856,
                    0.29759806
                ],
                "xyz": [
                    3.35668533,
                    1.9067890013060496,
                    1.5196937070259375
                ],
                "label": "O",
                "properties": {}
            },
            {
                "species": [
                    {
                        "element": "O",
                        "occu": 1
                    }
                ],
                "abc": [
                    0.78402856,
                    0.0,
                    0.29759806
                ],
                "xyz": [
                    5.26347433130605,
                    0.0,
                    1.5196937070259375
                ],
                "label": "O",
                "properties": {}
            },
            {
                "species": [
                    {
                        "element": "O",
                        "occu": 1
                    }
                ],
                "abc": [
                    0.5,
                    0.0,
                    0.76780742
                ],
                "xyz": [
                    3.35668533,
                    0.0,
                    3.920832361547723
                ],
                "label": "O",
                "properties": {}
            },
            {
                "species": [
                    {
                        "element": "O",
                        "occu": 1
                    }
                ],
                "abc": [
                    0.0,
                    0.5,
                    0.23219258
                ],
                "xyz": [
                    0.0,
                    3.35668533,
                    1.1856985984522768
                ],
                "label": "O",
                "properties": {}
            }
        ]
    },
    "spacegroup": {
        "source": "spglib",
        "symbol": "P4/nmm",
        "number": 129,
        "point_group": "4/mmm",
        "crystal_system": "tetragonal",
        "hall": "P 4ab 2ab -1ab"
    },
    "dielectric": {
        "epsilon_ionic": [
            [
                12.96451315,
                -5e-08,
                -1e-08
            ],
            [
                -5e-08,
                12.96448384,
                -1e-08
            ],
            [
                -1e-08,
                -1e-08,
                3.73433048
            ]
        ],
        "epsilon_ionic_avg": 9.887775823333333,
        "epsilon_ionic_eig": [
            12.964513150085297,
            12.964483839914704,
            3.73433048
        ],
        "epsilon_electronic": [
            [
                3.60227037,
                0.0,
                0.0
            ],
            [
                0.0,
                3.60227037,
                0.0
            ],
            [
                0.0,
                -0.0,
                2.96074151
            ]
        ],
        "epsilon_electronic_avg": 3.388427416666667,
        "epsilon_electronic_eig": [
            3.60227037,
            3.60227037,
            2.96074151
        ]
    },
    "phonon": {
        "lowest_freq": -0.07798406828616228,
        "frequency": [
            -0.07798406828616228,
            -0.07798406828616228,
            -0.01597319272531293,
            1.5370938960826268,
            1.805863149776132,
            1.805863149776132,
            3.8604697302930857,
            3.8604697302930857,
            3.995708186801524,
            4.271665603336837,
            4.570642492700505,
            5.3762121859345315,
            5.479865087398408,
            5.479865087398408,
            5.495932621359198,
            5.495932621359198,
            5.927884259329566,
            6.286944673850013,
            6.286944673850013,
            7.100780278231684,
            7.100780278231684,
            7.163312943196816,
            7.206462893208993,
            7.383441375868747,
            7.425335579198032,
            7.425335579198032,
            8.970966321963031,
            9.50320817231873,
            9.666818103667314,
            9.666818103667314,
            10.38708053364916,
            10.38708053364916,
            11.264082571090341,
            11.488438802209615,
            11.488438802209615,
            12.372770000716727,
            12.673316583628218,
            13.132252303430201,
            13.132252303430201,
            13.343537479237737,
            13.813626818136557,
            13.813626818136557,
            14.700852746070765,
            15.194996875063243,
            20.640812209492168,
            21.6015980455174,
            21.6015980455174,
            21.65202721245839,
            21.65202721245839,
            23.60161694697041,
            24.270175758199187,
            24.49871786701029,
            24.755337912865354,
            25.336603555040956
        ]
    },
    "born_effective_charge": {
        "avg_abs_trace": 2.102452777777778,
        "tensors": [
            [
                [
                    0.95108,
                    0.06335,
                    0.00825
                ],
                [
                    0.06335,
                    0.95109,
                    0.00825
                ],
                [
                    -0.05326,
                    -0.05326,
                    1.33579
                ]
            ],
            [
                [
                    0.95108,
                    -0.06335,
                    -0.00825
                ],
                [
                    -0.06335,
                    0.95109,
                    0.00825
                ],
                [
                    0.05326,
                    -0.05326,
                    1.33579
                ]
            ],
            [
                [
                    0.95108,
                    0.06335,
                    -0.00825
                ],
                [
                    0.06335,
                    0.95109,
                    -0.00825
                ],
                [
                    0.05326,
                    0.05326,
                    1.33579
                ]
            ],
            [
                [
                    0.95108,
                    -0.06335,
                    0.00825
                ],
                [
                    -0.06335,
                    0.95109,
                    -0.00825
                ],
                [
                    -0.05326,
                    0.05326,
                    1.33579
                ]
            ],
            [
                [
                    4.56888,
                    0.0,
                    0.00038
                ],
                [
                    0.0,
                    4.56888,
                    0.00038
                ],
                [
                    -0.0,
                    0.0,
                    2.71162
                ]
            ],
            [
                [
                    4.56888,
                    0.0,
                    -0.00038
                ],
                [
                    0.0,
                    4.56888,
                    -0.00038
                ],
                [
                    -0.0,
                    0.0,
                    2.7108
                ]
            ],
            [
                [
                    4.11175,
                    0.0,
                    0.00031
                ],
                [
                    0.0,
                    4.11175,
                    -0.00031
                ],
                [
                    -0.0,
                    0.0,
                    1.83472
                ]
            ],
            [
                [
                    4.11175,
                    0.0,
                    -0.00031
                ],
                [
                    0.0,
                    4.11175,
                    0.00031
                ],
                [
                    -0.0,
                    0.0,
                    1.83472
                ]
            ],
            [
                [
                    -1.2914,
                    0.00023,
                    3e-05
                ],
                [
                    0.0,
                    -3.50933,
                    -0.00646
                ],
                [
                    -0.0,
                    -0.0141,
                    -1.18498
                ]
            ],
            [
                [
                    -1.2914,
                    -0.00023,
                    3e-05
                ],
                [
                    0.0,
                    -3.50875,
                    0.00563
                ],
                [
                    -0.0,
                    0.0141,
                    -1.18498
                ]
            ],
            [
                [
                    -3.50932,
                    0.0,
                    -0.00646
                ],
                [
                    0.00022,
                    -1.29139,
                    3e-05
                ],
                [
                    -0.0141,
                    0.0,
                    -1.18498
                ]
            ],
            [
                [
                    -3.50873,
                    0.0,
                    0.00563
                ],
                [
                    -0.00022,
                    -1.29139,
                    3e-05
                ],
                [
                    0.0141,
                    0.0,
                    -1.18498
                ]
            ],
            [
                [
                    -3.50932,
                    0.0,
                    0.00646
                ],
                [
                    0.00022,
                    -1.29139,
                    -3e-05
                ],
                [
                    0.014,
                    0.0,
                    -1.18547
                ]
            ],
            [
                [
                    -1.2914,
                    0.00023,
                    -3e-05
                ],
                [
                    0.0,
                    -3.50933,
                    0.00646
                ],
                [
                    -0.0,
                    0.014,
                    -1.18547
                ]
            ],
            [
                [
                    -1.2914,
                    -0.00023,
                    -3e-05
                ],
                [
                    0.0,
                    -3.50875,
                    -0.00563
                ],
                [
                    -0.0,
                    -0.014,
                    -1.18547
                ]
            ],
            [
                [
                    -3.50873,
                    0.0,
                    -0.00563
                ],
                [
                    -0.00022,
                    -1.29139,
                    -3e-05
                ],
                [
                    -0.014,
                    0.0,
                    -1.18547
                ]
            ],
            [
                [
                    -0.98195,
                    0.0,
                    -8e-05
                ],
                [
                    0.0,
                    -0.98194,
                    -8e-05
                ],
                [
                    -0.0,
                    0.0,
                    -2.47628
                ]
            ],
            [
                [
                    -0.98195,
                    0.0,
                    8e-05
                ],
                [
                    0.0,
                    -0.98194,
                    8e-05
                ],
                [
                    -0.0,
                    0.0,
                    -2.47695
                ]
            ]
        ]
    },
    "band_gap": 3.5457,
    "is_direct": false,
    "formula": "Na2TiGeO5"
}