{
    "mp_id": "mp-6325",
    "nelements": 4,
    "nsites": 15,
    "elements": [
        "Ba",
        "Mg",
        "O",
        "Ta"
    ],
    "structure": {
        "@module": "pymatgen.core.structure",
        "@class": "Structure",
        "charge": null,
        "lattice": {
            "matrix": [
                [
                    5.77881456,
                    -0.0,
                    0.0
                ],
                [
                    -2.88940678,
                    5.00459981,
                    0.0
                ],
                [
                    0.0,
                    0.0,
                    7.10570461
                ]
            ],
            "a": 5.77881456,
            "b": 5.778813961234779,
            "c": 7.10570461,
            "alpha": 90.0,
            "beta": 90.0,
            "gamma": 119.999997703207,
            "volume": 205.50162622134417
        },
        "sites": [
            {
                "species": [
                    {
                        "element": "Ba",
                        "occu": 1
                    }
                ],
                "abc": [
                    0.333333,
                    0.666667,
                    0.66057152
                ],
                "xyz": [
                    -2.556073779969026e-06,
                    3.33640154153327,
                    4.693826094898707
                ],
                "label": "Ba",
                "properties": {}
            },
            {
                "species": [
                    {
                        "element": "Ba",
                        "occu": 1
                    }
                ],
                "abc": [
                    0.0,
                    0.0,
                    0.0
                ],
                "xyz": [
                    0.0,
                    0.0,
                    0.0
                ],
                "label": "Ba",
                "properties": {}
            },
            {
                "species": [
                    {
                        "element": "Ba",
                        "occu": 1
                    }
                ],
                "abc": [
                    0.666667,
                    0.333333,
                    0.33942848
                ],
                "xyz": [
                    2.88941033607378,
                    1.66819826846673,
                    2.4118785151012925
                ],
                "label": "Ba",
                "properties": {}
            },
            {
                "species": [
                    {
                        "element": "Mg",
                        "occu": 1
                    }
                ],
                "abc": [
                    0.0,
                    0.0,
                    0.5
                ],
                "xyz": [
                    0.0,
                    0.0,
                    3.552852305
                ],
                "label": "Mg",
                "properties": {}
            },
            {
                "species": [
                    {
                        "element": "Ta",
                        "occu": 1
                    }
                ],
                "abc": [
                    0.333333,
                    0.666667,
                    0.17519251
                ],
                "xyz": [
                    -2.556073779969026e-06,
                    3.33640154153327,
                    1.2448662259444712
                ],
                "label": "Ta",
                "properties": {}
            },
            {
                "species": [
                    {
                        "element": "Ta",
                        "occu": 1
                    }
                ],
                "abc": [
                    0.666667,
                    0.333333,
                    0.82480749
                ],
                "xyz": [
                    2.88941033607378,
                    1.66819826846673,
                    5.860838384055529
                ],
                "label": "Ta",
                "properties": {}
            },
            {
                "species": [
                    {
                        "element": "O",
                        "occu": 1
                    }
                ],
                "abc": [
                    0.8289926,
                    0.1710074,
                    0.67441944
                ],
                "xyz": [
                    4.296484566022084,
                    0.855823601548594,
                    4.792225323881619
                ],
                "label": "O",
                "properties": {}
            },
            {
                "species": [
                    {
                        "element": "O",
                        "occu": 1
                    }
                ],
                "abc": [
                    0.8289926,
                    0.6579842,
                    0.67441944
                ],
                "xyz": [
                    2.88941049839938,
                    3.2929476023030024,
                    4.792225323881619
                ],
                "label": "O",
                "properties": {}
            },
            {
                "species": [
                    {
                        "element": "O",
                        "occu": 1
                    }
                ],
                "abc": [
                    0.3420158,
                    0.1710074,
                    0.67441944
                ],
                "xyz": [
                    1.482335943799876,
                    0.855823601548594,
                    4.792225323881619
                ],
                "label": "O",
                "properties": {}
            },
            {
                "species": [
                    {
                        "element": "O",
                        "occu": 1
                    }
                ],
                "abc": [
                    0.6579842,
                    0.8289926,
                    0.32558056
                ],
                "xyz": [
                    1.407071836200124,
                    4.148776208451406,
                    2.313479286118382
                ],
                "label": "O",
                "properties": {}
            },
            {
                "species": [
                    {
                        "element": "O",
                        "occu": 1
                    }
                ],
                "abc": [
                    0.1710074,
                    0.3420158,
                    0.32558056
                ],
                "xyz": [
                    -2.7183993799306805e-06,
                    1.711652207696998,
                    2.313479286118382
                ],
                "label": "O",
                "properties": {}
            },
            {
                "species": [
                    {
                        "element": "O",
                        "occu": 1
                    }
                ],
                "abc": [
                    0.1710074,
                    0.8289926,
                    0.32558056
                ],
                "xyz": [
                    -1.4070767860220839,
                    4.148776208451406,
                    2.313479286118382
                ],
                "label": "O",
                "properties": {}
            },
            {
                "species": [
                    {
                        "element": "O",
                        "occu": 1
                    }
                ],
                "abc": [
                    0.5,
                    0.0,
                    0.0
                ],
                "xyz": [
                    2.88940728,
                    0.0,
                    0.0
                ],
                "label": "O",
                "properties": {}
            },
            {
                "species": [
                    {
                        "element": "O",
                        "occu": 1
                    }
                ],
                "abc": [
                    0.0,
                    0.5,
                    0.0
                ],
                "xyz": [
                    -1.44470339,
                    2.502299905,
                    0.0
                ],
                "label": "O",
                "properties": {}
            },
            {
                "species": [
                    {
                        "element": "O",
                        "occu": 1
                    }
                ],
                "abc": [
                    0.5,
                    0.5,
                    0.0
                ],
                "xyz": [
                    1.44470389,
                    2.502299905,
                    0.0
                ],
                "label": "O",
                "properties": {}
            }
        ]
    },
    "spacegroup": {
        "source": "spglib",
        "symbol": "P-3m1",
        "number": 164,
        "point_group": "-3m",
        "crystal_system": "trigonal",
        "hall": "-P 3 2\""
    },
    "dielectric": {
        "epsilon_ionic": [
            [
                19.30042484,
                1e-08,
                0.0
            ],
            [
                1e-08,
                19.3011167,
                0.00065774
            ],
            [
                0.0,
                0.00065774,
                16.71591859
            ]
        ],
        "epsilon_ionic_avg": 18.439153376666667,
        "epsilon_ionic_eig": [
            19.300424839999856,
            19.30111686734588,
            16.715918422654266
        ],
        "epsilon_electronic": [
            [
                4.55464049,
                0.0,
                0.0
            ],
            [
                -0.0,
                4.55464099,
                0.0
            ],
            [
                -0.0,
                0.0,
                4.47195165
            ]
        ],
        "epsilon_electronic_avg": 4.52707771,
        "epsilon_electronic_eig": [
            4.55464049,
            4.55464099,
            4.47195165
        ]
    },
    "phonon": {
        "lowest_freq": -0.0183830595616033,
        "frequency": [
            -0.0183830595616033,
            -0.018383058564489067,
            -0.017142342505958683,
            2.939011568106901,
            2.996241482444592,
            2.9962416455823937,
            3.116018970058699,
            3.220798784203664,
            3.2207989549377953,
            3.9102706835522896,
            3.951324298718307,
            3.951324512110164,
            4.596717100302978,
            4.596717323610287,
            4.7544915099541685,
            4.9093078703605,
            4.909308024687833,
            5.381385538215747,
            6.360655824784696,
            7.364926506004909,
            7.364926705110871,
            7.738634062934841,
            7.738634299798471,
            7.818592649455893,
            7.975482765037164,
            7.975482933578774,
            8.390054192851577,
            9.347521539460011,
            9.420308096131642,
            9.420308589066938,
            11.110432750117536,
            11.110432904099017,
            11.829473004302324,
            11.829473128263956,
            12.443298271881257,
            12.575599396248696,
            16.135080781549316,
            16.135080857284958,
            17.004003383775387,
            17.004003671237257,
            17.640806395598077,
            18.35722645595132,
            18.3572266556548,
            22.878446089027193,
            23.62397163398267
        ]
    },
    "born_effective_charge": {
        "avg_abs_trace": 3.1294686666666665,
        "tensors": [
            [
                [
                    2.64429,
                    7e-05,
                    -1e-05
                ],
                [
                    -0.0,
                    2.64438,
                    6e-05
                ],
                [
                    0.0,
                    0.0,
                    3.04512
                ]
            ],
            [
                [
                    2.99164,
                    0.0,
                    0.0
                ],
                [
                    -0.0,
                    2.99164,
                    -1e-05
                ],
                [
                    0.0,
                    0.0,
                    2.19669
                ]
            ],
            [
                [
                    2.64429,
                    -7e-05,
                    1e-05
                ],
                [
                    -0.0,
                    2.64437,
                    6e-05
                ],
                [
                    0.0,
                    0.0,
                    3.04509
                ]
            ],
            [
                [
                    2.68768,
                    0.0,
                    0.0
                ],
                [
                    -0.0,
                    2.68772,
                    4e-05
                ],
                [
                    0.0,
                    0.0,
                    2.8226
                ]
            ],
            [
                [
                    6.37603,
                    -0.00011,
                    5e-05
                ],
                [
                    -0.0,
                    6.37603,
                    0.00042
                ],
                [
                    0.0,
                    0.0,
                    5.93184
                ]
            ],
            [
                [
                    6.37603,
                    0.00011,
                    -5e-05
                ],
                [
                    -0.0,
                    6.376,
                    0.00042
                ],
                [
                    0.0,
                    0.0,
                    5.93159
                ]
            ],
            [
                [
                    -2.7671,
                    0.44545,
                    0.53349
                ],
                [
                    0.44544,
                    -2.25256,
                    -0.30793
                ],
                [
                    0.63249,
                    -0.36517,
                    -2.47027
                ]
            ],
            [
                [
                    -1.99546,
                    0.00013,
                    -0.00015
                ],
                [
                    0.0,
                    -3.02432,
                    0.61554
                ],
                [
                    -0.0,
                    0.73034,
                    -2.47027
                ]
            ],
            [
                [
                    -2.76684,
                    -0.44538,
                    -0.53346
                ],
                [
                    -0.44544,
                    -2.25256,
                    -0.30793
                ],
                [
                    -0.63249,
                    -0.36517,
                    -2.47027
                ]
            ],
            [
                [
                    -2.7671,
                    -0.44545,
                    -0.53349
                ],
                [
                    -0.44557,
                    -2.25256,
                    -0.3079
                ],
                [
                    -0.63267,
                    -0.36527,
                    -2.47041
                ]
            ],
            [
                [
                    -1.99546,
                    -0.00013,
                    0.00015
                ],
                [
                    0.0,
                    -3.02447,
                    0.61552
                ],
                [
                    0.0,
                    0.73055,
                    -2.47041
                ]
            ],
            [
                [
                    -2.76684,
                    0.44538,
                    0.53346
                ],
                [
                    0.44557,
                    -2.25256,
                    -0.3079
                ],
                [
                    0.63267,
                    -0.36527,
                    -2.47041
                ]
            ],
            [
                [
                    -1.84588,
                    0.0,
                    0.0
                ],
                [
                    -0.0,
                    -3.92806,
                    1.59526
                ],
                [
                    0.0,
                    1.26153,
                    -2.71697
                ]
            ],
            [
                [
                    -3.40765,
                    -0.90151,
                    -1.38188
                ],
                [
                    -0.90165,
                    -2.36652,
                    -0.79782
                ],
                [
                    -1.09252,
                    -0.63076,
                    -2.71697
                ]
            ],
            [
                [
                    -3.40765,
                    0.90151,
                    1.38188
                ],
                [
                    0.90165,
                    -2.36652,
                    -0.79782
                ],
                [
                    1.09252,
                    -0.63076,
                    -2.71697
                ]
            ]
        ]
    },
    "band_gap": 3.4888,
    "is_direct": false,
    "formula": "Ba3MgTa2O9"
}