{
    "mp_id": "mp-6660",
    "nelements": 4,
    "nsites": 12,
    "elements": [
        "B",
        "Ba",
        "Na",
        "O"
    ],
    "structure": {
        "@module": "pymatgen.core.structure",
        "@class": "Structure",
        "charge": null,
        "lattice": {
            "matrix": [
                [
                    4.77130059,
                    -2.7717003,
                    -0.00092907
                ],
                [
                    4.77130059,
                    2.7717003,
                    -0.00092907
                ],
                [
                    -0.96157834,
                    0.0,
                    6.03638993
                ]
            ],
            "a": 5.5179373624865935,
            "b": 5.5179373624865935,
            "c": 6.112498367358683,
            "alpha": 97.8276415529839,
            "beta": 97.8276415529839,
            "gamma": 60.30553697513862,
            "volume": 159.65291664102406
        },
        "sites": [
            {
                "species": [
                    {
                        "element": "Ba",
                        "occu": 1
                    }
                ],
                "abc": [
                    0.16622061,
                    0.16622061,
                    0.24234085
                ],
                "xyz": [
                    1.3531472768691308,
                    0.0,
                    1.4625550054033751
                ],
                "label": "Ba",
                "properties": {}
            },
            {
                "species": [
                    {
                        "element": "Ba",
                        "occu": 1
                    }
                ],
                "abc": [
                    0.83377939,
                    0.83377939,
                    0.75765915
                ],
                "xyz": [
                    7.22787556313087,
                    0.0,
                    4.571976784596624
                ],
                "label": "Ba",
                "properties": {}
            },
            {
                "species": [
                    {
                        "element": "Na",
                        "occu": 1
                    }
                ],
                "abc": [
                    0.5,
                    0.5,
                    0.5
                ],
                "xyz": [
                    4.29051142,
                    0.0,
                    3.017265895
                ],
                "label": "Na",
                "properties": {}
            },
            {
                "species": [
                    {
                        "element": "Na",
                        "occu": 1
                    }
                ],
                "abc": [
                    0.5,
                    0.5,
                    0.0
                ],
                "xyz": [
                    4.77130059,
                    0.0,
                    -0.00092907
                ],
                "label": "Na",
                "properties": {}
            },
            {
                "species": [
                    {
                        "element": "B",
                        "occu": 1
                    }
                ],
                "abc": [
                    0.16803065,
                    0.16803065,
                    0.75169711
                ],
                "xyz": [
                    0.8806338197495698,
                    0.0,
                    4.537224640742111
                ],
                "label": "B",
                "properties": {}
            },
            {
                "species": [
                    {
                        "element": "B",
                        "occu": 1
                    }
                ],
                "abc": [
                    0.83196935,
                    0.83196935,
                    0.24830289
                ],
                "xyz": [
                    7.700389020250431,
                    0.0,
                    1.4973071492578887
                ],
                "label": "B",
                "properties": {}
            },
            {
                "species": [
                    {
                        "element": "O",
                        "occu": 1
                    }
                ],
                "abc": [
                    0.11400095,
                    0.68204282,
                    0.20927464
                ],
                "xyz": [
                    3.596930148531527,
                    1.5744418214915612,
                    1.2625237491149817
                ],
                "label": "O",
                "properties": {}
            },
            {
                "species": [
                    {
                        "element": "O",
                        "occu": 1
                    }
                ],
                "abc": [
                    0.31795718,
                    0.88599905,
                    0.79072536
                ],
                "xyz": [
                    4.984092691468474,
                    1.5744418214915608,
                    4.772008040885019
                ],
                "label": "O",
                "properties": {}
            },
            {
                "species": [
                    {
                        "element": "O",
                        "occu": 1
                    }
                ],
                "abc": [
                    0.88599905,
                    0.31795718,
                    0.79072536
                ],
                "xyz": [
                    4.984092691468474,
                    -1.5744418214915608,
                    4.772008040885019
                ],
                "label": "O",
                "properties": {}
            },
            {
                "species": [
                    {
                        "element": "O",
                        "occu": 1
                    }
                ],
                "abc": [
                    0.68204282,
                    0.11400095,
                    0.20927464
                ],
                "xyz": [
                    3.596930148531527,
                    -1.5744418214915612,
                    1.2625237491149817
                ],
                "label": "O",
                "properties": {}
            },
            {
                "species": [
                    {
                        "element": "O",
                        "occu": 1
                    }
                ],
                "abc": [
                    0.29938008,
                    0.29938008,
                    0.6791373
                ],
                "xyz": [
                    2.2038209871104124,
                    0.0,
                    4.098981268705538
                ],
                "label": "O",
                "properties": {}
            },
            {
                "species": [
                    {
                        "element": "O",
                        "occu": 1
                    }
                ],
                "abc": [
                    0.70061992,
                    0.70061992,
                    0.3208627
                ],
                "xyz": [
                    6.377201852889588,
                    0.0,
                    1.9355505212944624
                ],
                "label": "O",
                "properties": {}
            }
        ]
    },
    "spacegroup": {
        "source": "spglib",
        "symbol": "C2/m",
        "number": 12,
        "point_group": "2/m",
        "crystal_system": "monoclinic",
        "hall": "-C 2y"
    },
    "dielectric": {
        "epsilon_ionic": [
            [
                6.37587566,
                -1.3e-07,
                1.10529827
            ],
            [
                -1.3e-07,
                6.71147684,
                -0.0
            ],
            [
                1.10529827,
                -0.0,
                7.678016
            ]
        ],
        "epsilon_ionic_avg": 6.921789500000003,
        "epsilon_ionic_eig": [
            8.309746138671946,
            5.7441455213280515,
            6.711476840000011
        ],
        "epsilon_electronic": [
            [
                3.17213589,
                0.0,
                -0.06754957
            ],
            [
                0.0,
                3.21351295,
                0.0
            ],
            [
                -0.06754955,
                0.0,
                3.05239323
            ]
        ],
        "epsilon_electronic_avg": 3.146014023333333,
        "epsilon_electronic_eig": [
            3.202528169567546,
            3.022000950432454,
            3.21351295
        ]
    },
    "phonon": {
        "lowest_freq": -0.1052575124284968,
        "frequency": [
            -0.1052575124284968,
            -0.08844938904775777,
            -0.03642533695088318,
            2.4371316624330284,
            2.535779423102447,
            3.224223286640708,
            3.5388809879531373,
            3.7970420847247652,
            3.8310612315433974,
            4.807843831045836,
            4.8088547140782945,
            5.036353004907524,
            5.423238993967397,
            5.66403066496812,
            5.7402809296502415,
            5.776454084862619,
            6.2661385007039065,
            6.29922915465005,
            6.36083914176593,
            6.693006786571189,
            7.159666166441248,
            7.297934901726645,
            7.420810714873455,
            7.950020037241951,
            16.36584597960645,
            16.498298607339564,
            16.814569970787186,
            16.882020208396032,
            22.710270046076623,
            22.82409966121131,
            26.542167005524124,
            26.557590289209713,
            35.9468323167882,
            36.04739714748567,
            36.2576692886372,
            36.2625301485396
        ]
    },
    "born_effective_charge": {
        "avg_abs_trace": 1.7691361111111112,
        "tensors": [
            [
                [
                    2.66089,
                    -0.0,
                    0.06146
                ],
                [
                    0.0,
                    2.63406,
                    -0.00028
                ],
                [
                    0.13078,
                    0.0,
                    2.5387
                ]
            ],
            [
                [
                    2.66089,
                    -0.0,
                    0.06143
                ],
                [
                    -0.0,
                    2.63406,
                    0.00028
                ],
                [
                    0.13088,
                    0.0,
                    2.53861
                ]
            ],
            [
                [
                    1.23249,
                    -0.0,
                    0.04428
                ],
                [
                    -0.0,
                    1.14546,
                    0.0
                ],
                [
                    0.01844,
                    0.0,
                    1.06419
                ]
            ],
            [
                [
                    1.1713,
                    -0.0,
                    0.038
                ],
                [
                    -0.0,
                    1.22667,
                    0.0
                ],
                [
                    0.02796,
                    0.0,
                    1.01232
                ]
            ],
            [
                [
                    1.98315,
                    -0.0,
                    -0.65753
                ],
                [
                    1e-05,
                    2.13581,
                    -1e-05
                ],
                [
                    -0.8958,
                    0.0,
                    0.54348
                ]
            ],
            [
                [
                    1.98312,
                    -0.0,
                    -0.65751
                ],
                [
                    -1e-05,
                    2.13581,
                    1e-05
                ],
                [
                    -0.8957,
                    0.0,
                    0.54346
                ]
            ],
            [
                [
                    -1.92178,
                    0.08036,
                    0.12291
                ],
                [
                    0.05663,
                    -2.08275,
                    -0.10779
                ],
                [
                    0.18,
                    -0.09333,
                    -1.29308
                ]
            ],
            [
                [
                    -1.92172,
                    -0.08032,
                    0.12285
                ],
                [
                    -0.05663,
                    -2.08275,
                    0.10779
                ],
                [
                    0.17997,
                    0.09327,
                    -1.29311
                ]
            ],
            [
                [
                    -1.92172,
                    0.08032,
                    0.12285
                ],
                [
                    0.05608,
                    -2.08218,
                    -0.1078
                ],
                [
                    0.17997,
                    -0.09327,
                    -1.29311
                ]
            ],
            [
                [
                    -1.92178,
                    -0.08036,
                    0.12291
                ],
                [
                    -0.05608,
                    -2.08218,
                    0.1078
                ],
                [
                    0.18,
                    0.09333,
                    -1.29308
                ]
            ],
            [
                [
                    -2.00226,
                    -0.0,
                    0.30914
                ],
                [
                    -0.00074,
                    -1.791,
                    0.00016
                ],
                [
                    0.38179,
                    0.0,
                    -1.53416
                ]
            ],
            [
                [
                    -2.00256,
                    -0.0,
                    0.30919
                ],
                [
                    0.00074,
                    -1.791,
                    -0.00016
                ],
                [
                    0.38172,
                    0.0,
                    -1.53421
                ]
            ]
        ]
    },
    "band_gap": 3.7331999999999996,
    "is_direct": true,
    "formula": "BaNaBO3"
}