{
    "mp_id": "mp-643",
    "nelements": 2,
    "nsites": 3,
    "elements": [
        "O",
        "Th"
    ],
    "structure": {
        "@module": "pymatgen.core.structure",
        "@class": "Structure",
        "charge": null,
        "lattice": {
            "matrix": [
                [
                    0.0,
                    2.89035363,
                    2.89035363
                ],
                [
                    2.89035363,
                    0.0,
                    2.89035363
                ],
                [
                    2.89035363,
                    2.89035363,
                    0.0
                ]
            ],
            "a": 4.087577303600306,
            "b": 4.087577303600306,
            "c": 4.087577303600306,
            "alpha": 59.99999999999999,
            "beta": 59.99999999999999,
            "gamma": 59.99999999999999,
            "volume": 48.292861487265874
        },
        "sites": [
            {
                "species": [
                    {
                        "element": "Th",
                        "occu": 1
                    }
                ],
                "abc": [
                    0.0,
                    0.0,
                    0.0
                ],
                "xyz": [
                    0.0,
                    0.0,
                    0.0
                ],
                "label": "Th",
                "properties": {}
            },
            {
                "species": [
                    {
                        "element": "O",
                        "occu": 1
                    }
                ],
                "abc": [
                    0.75,
                    0.75,
                    0.75
                ],
                "xyz": [
                    4.335530445,
                    4.335530445,
                    4.335530445
                ],
                "label": "O",
                "properties": {}
            },
            {
                "species": [
                    {
                        "element": "O",
                        "occu": 1
                    }
                ],
                "abc": [
                    0.25,
                    0.25,
                    0.25
                ],
                "xyz": [
                    1.445176815,
                    1.445176815,
                    1.445176815
                ],
                "label": "O",
                "properties": {}
            }
        ]
    },
    "spacegroup": {
        "source": "spglib",
        "symbol": "Fm-3m",
        "number": 225,
        "point_group": "m-3m",
        "crystal_system": "cubic",
        "hall": "-F 4 2 3"
    },
    "dielectric": {
        "epsilon_ionic": [
            [
                11.93932411,
                -0.0,
                -0.0
            ],
            [
                -0.0,
                11.93805264,
                -0.0
            ],
            [
                -0.0,
                -0.0,
                11.9381571
            ]
        ],
        "epsilon_ionic_avg": 11.938511283333334,
        "epsilon_ionic_eig": [
            11.93932411,
            11.93805264,
            11.9381571
        ],
        "epsilon_electronic": [
            [
                4.84209182,
                0.0,
                -0.0
            ],
            [
                0.0,
                4.84209182,
                0.0
            ],
            [
                0.0,
                0.0,
                4.84209182
            ]
        ],
        "epsilon_electronic_avg": 4.84209182,
        "epsilon_electronic_eig": [
            4.84209182,
            4.84209182,
            4.84209182
        ]
    },
    "phonon": {
        "lowest_freq": -0.013201913151502194,
        "frequency": [
            -0.013201913151502194,
            -0.013201913142245955,
            -0.013201913142245955,
            8.883253090713438,
            8.883253090713438,
            8.883253090713438,
            13.241186495501532,
            13.241186495501532,
            13.241186495501532
        ]
    },
    "born_effective_charge": {
        "avg_abs_trace": 3.5946933333333337,
        "tensors": [
            [
                [
                    5.39222,
                    0.0,
                    0.0
                ],
                [
                    0.0,
                    5.39194,
                    0.0
                ],
                [
                    0.0,
                    0.0,
                    5.39196
                ]
            ],
            [
                [
                    -2.69611,
                    0.0,
                    0.0
                ],
                [
                    0.0,
                    -2.69597,
                    0.0
                ],
                [
                    0.0,
                    0.0,
                    -2.69598
                ]
            ],
            [
                [
                    -2.69611,
                    0.0,
                    0.0
                ],
                [
                    0.0,
                    -2.69597,
                    0.0
                ],
                [
                    -0.0,
                    -0.0,
                    -2.69598
                ]
            ]
        ]
    },
    "band_gap": 4.4503,
    "is_direct": false,
    "formula": "ThO2"
}