{
    "mp_id": "mp-6126",
    "nelements": 4,
    "nsites": 18,
    "elements": [
        "B",
        "Cd",
        "Li",
        "O"
    ],
    "structure": {
        "@module": "pymatgen.core.structure",
        "@class": "Structure",
        "charge": null,
        "lattice": {
            "matrix": [
                [
                    8.33815066,
                    2.1e-07,
                    0.0
                ],
                [
                    -4.16907551,
                    7.22105006,
                    0.0
                ],
                [
                    0.0,
                    0.0,
                    3.24783057
                ]
            ],
            "a": 8.338150660000002,
            "b": 8.338150548959149,
            "c": 3.24783057,
            "alpha": 90.0,
            "beta": 90.0,
            "gamma": 120.00000042572901,
            "volume": 195.5525418240648
        },
        "sites": [
            {
                "species": [
                    {
                        "element": "Li",
                        "occu": 1
                    }
                ],
                "abc": [
                    0.29177319,
                    0.00816347,
                    0.5
                ],
                "xyz": [
                    2.3988146939151855,
                    0.0589488868056781,
                    1.623915285
                ],
                "label": "Li",
                "properties": {}
            },
            {
                "species": [
                    {
                        "element": "Li",
                        "occu": 1
                    }
                ],
                "abc": [
                    0.71639028,
                    0.70822681,
                    0.5
                ],
                "xyz": [
                    3.0207190369031625,
                    5.1141413992860665,
                    1.623915285
                ],
                "label": "Li",
                "properties": {}
            },
            {
                "species": [
                    {
                        "element": "Li",
                        "occu": 1
                    }
                ],
                "abc": [
                    0.99183653,
                    0.28360972,
                    0.5
                ],
                "xyz": [
                    7.087692079181652,
                    2.0479601939082546,
                    1.623915285
                ],
                "label": "Li",
                "properties": {}
            },
            {
                "species": [
                    {
                        "element": "Cd",
                        "occu": 1
                    }
                ],
                "abc": [
                    0.63148248,
                    0.99506444,
                    0.0
                ],
                "xyz": [
                    1.1168972697145723,
                    7.185410266777187,
                    0.0
                ],
                "label": "Cd",
                "properties": {}
            },
            {
                "species": [
                    {
                        "element": "Cd",
                        "occu": 1
                    }
                ],
                "abc": [
                    0.00493556,
                    0.63641804,
                    0.0
                ],
                "xyz": [
                    -2.612121421814731,
                    4.59560652696355,
                    0.0
                ],
                "label": "Cd",
                "properties": {}
            },
            {
                "species": [
                    {
                        "element": "Cd",
                        "occu": 1
                    }
                ],
                "abc": [
                    0.36358196,
                    0.36851752,
                    0.0
                ],
                "xyz": [
                    1.4952237921001585,
                    2.6610835362592624,
                    0.0
                ],
                "label": "Cd",
                "properties": {}
            },
            {
                "species": [
                    {
                        "element": "B",
                        "occu": 1
                    }
                ],
                "abc": [
                    0.0,
                    0.0,
                    0.0
                ],
                "xyz": [
                    0.0,
                    0.0,
                    0.0
                ],
                "label": "B",
                "properties": {}
            },
            {
                "species": [
                    {
                        "element": "B",
                        "occu": 1
                    }
                ],
                "abc": [
                    0.666667,
                    0.333333,
                    0.5
                ],
                "xyz": [
                    4.169079439075391,
                    2.40701441965005,
                    1.623915285
                ],
                "label": "B",
                "properties": {}
            },
            {
                "species": [
                    {
                        "element": "B",
                        "occu": 1
                    }
                ],
                "abc": [
                    0.333333,
                    0.666667,
                    0.5
                ],
                "xyz": [
                    -4.289075389962704e-06,
                    4.81403585034995,
                    1.623915285
                ],
                "label": "B",
                "properties": {}
            },
            {
                "species": [
                    {
                        "element": "O",
                        "occu": 1
                    }
                ],
                "abc": [
                    0.18913725,
                    0.06334623,
                    0.0
                ],
                "xyz": [
                    1.3129596697742578,
                    0.4574263376610963,
                    0.0
                ],
                "label": "O",
                "properties": {}
            },
            {
                "species": [
                    {
                        "element": "O",
                        "occu": 1
                    }
                ],
                "abc": [
                    0.93665377,
                    0.12579202,
                    0.0
                ],
                "xyz": [
                    7.285523820581559,
                    0.9083506702658128,
                    0.0
                ],
                "label": "O",
                "properties": {}
            },
            {
                "species": [
                    {
                        "element": "O",
                        "occu": 1
                    }
                ],
                "abc": [
                    0.87420798,
                    0.81086275,
                    0.0
                ],
                "xyz": [
                    3.9087298124180148,
                    5.85528069312294,
                    0.0
                ],
                "label": "O",
                "properties": {}
            },
            {
                "species": [
                    {
                        "element": "O",
                        "occu": 1
                    }
                ],
                "abc": [
                    0.24798568,
                    0.4747951,
                    0.5
                ],
                "xyz": [
                    0.08828533768454738,
                    3.428519237419699,
                    1.623915285
                ],
                "label": "O",
                "properties": {}
            },
            {
                "species": [
                    {
                        "element": "O",
                        "occu": 1
                    }
                ],
                "abc": [
                    0.22680942,
                    0.75201432,
                    0.5
                ],
                "xyz": [
                    -1.2440333696140857,
                    5.430333098186837,
                    1.623915285
                ],
                "label": "O",
                "properties": {}
            },
            {
                "species": [
                    {
                        "element": "O",
                        "occu": 1
                    }
                ],
                "abc": [
                    0.5252049,
                    0.77319058,
                    0.5
                ],
                "xyz": [
                    1.155747671929538,
                    5.583247994393463,
                    1.623915285
                ],
                "label": "O",
                "properties": {}
            },
            {
                "species": [
                    {
                        "element": "O",
                        "occu": 1
                    }
                ],
                "abc": [
                    0.58165463,
                    0.43979966,
                    0.5
                ],
                "xyz": [
                    3.016365945214229,
                    3.1758154833784515,
                    1.623915285
                ],
                "label": "O",
                "properties": {}
            },
            {
                "species": [
                    {
                        "element": "O",
                        "occu": 1
                    }
                ],
                "abc": [
                    0.85814403,
                    0.41834537,
                    0.5
                ],
                "xyz": [
                    5.411220773330671,
                    3.020893039349468,
                    1.623915285
                ],
                "label": "O",
                "properties": {}
            },
            {
                "species": [
                    {
                        "element": "O",
                        "occu": 1
                    }
                ],
                "abc": [
                    0.56020034,
                    0.14185597,
                    0.5
                ],
                "xyz": [
                    4.079626584228929,
                    1.0243491783219296,
                    1.623915285
                ],
                "label": "O",
                "properties": {}
            }
        ]
    },
    "spacegroup": {
        "source": "spglib",
        "symbol": "P-6",
        "number": 174,
        "point_group": "-6",
        "crystal_system": "hexagonal",
        "hall": "P -6"
    },
    "dielectric": {
        "epsilon_ionic": [
            [
                4.10573149,
                -0.00020118,
                0.0
            ],
            [
                -0.00020118,
                4.10549839,
                -0.0
            ],
            [
                0.0,
                -0.0,
                4.06315702
            ]
        ],
        "epsilon_ionic_avg": 4.091462300000001,
        "epsilon_ionic_eig": [
            4.105847442247086,
            4.1053824377529144,
            4.06315702
        ],
        "epsilon_electronic": [
            [
                3.48148673,
                -8.22e-06,
                0.0
            ],
            [
                8.7e-06,
                3.48148617,
                0.0
            ],
            [
                0.0,
                -0.0,
                3.1583579
            ]
        ],
        "epsilon_electronic_avg": 3.3737769333333336,
        "epsilon_electronic_eig": [
            3.4814864500000002,
            3.4814864500000002,
            3.1583579
        ]
    },
    "phonon": {
        "lowest_freq": -0.042151555659497374,
        "frequency": [
            -0.042151555659497374,
            -0.04215155116594763,
            -0.03761320262113104,
            1.547052380409351,
            1.547052380409351,
            2.276029399908694,
            2.8991795734477996,
            3.104474533822044,
            3.104474545630812,
            3.979159875861629,
            3.979159875861629,
            4.017235046759028,
            4.529014823635016,
            5.480794487842599,
            5.480794487842599,
            6.457360626504288,
            6.457361307773677,
            7.554373151090832,
            7.709431646355693,
            7.709431646355693,
            7.9517167881066655,
            7.951716941784252,
            8.796371394551578,
            8.79701079686358,
            8.797011005229923,
            9.350973073909135,
            10.621022282083711,
            11.079168223518861,
            11.19996205449734,
            11.19996205449734,
            13.20718765434605,
            13.207187756124018,
            13.788085223831507,
            13.788086482338999,
            14.238761976654915,
            14.343929804898753,
            17.597087784589842,
            17.597087854033187,
            17.963639590235957,
            17.963639658262302,
            18.32162567756757,
            18.321625744264743,
            20.61738869934417,
            20.647560499810833,
            20.76199157887896,
            26.705677907572458,
            27.17379415903769,
            27.4573075362932,
            36.09822566892273,
            36.09822898642815,
            37.73247740468181,
            37.732479315450504,
            38.999997121219984,
            38.99999890722103
        ]
    },
    "born_effective_charge": {
        "avg_abs_trace": 1.7714029629629628,
        "tensors": [
            [
                [
                    1.12246,
                    -0.02483,
                    0.0
                ],
                [
                    -0.02554,
                    1.05547,
                    0.0
                ],
                [
                    -0.0,
                    -2e-05,
                    0.96776
                ]
            ],
            [
                [
                    1.09405,
                    0.04202,
                    0.0
                ],
                [
                    0.04103,
                    1.08395,
                    0.0
                ],
                [
                    -1e-05,
                    1e-05,
                    0.96776
                ]
            ],
            [
                [
                    1.05039,
                    -0.01603,
                    0.0
                ],
                [
                    -0.01694,
                    1.12735,
                    0.0
                ],
                [
                    2e-05,
                    1e-05,
                    0.96776
                ]
            ],
            [
                [
                    2.1729,
                    0.11601,
                    0.0
                ],
                [
                    -0.21606,
                    2.278,
                    0.0
                ],
                [
                    2e-05,
                    -3e-05,
                    2.45993
                ]
            ],
            [
                [
                    2.20858,
                    0.23642,
                    0.0
                ],
                [
                    -0.09562,
                    2.2424,
                    0.0
                ],
                [
                    2e-05,
                    3e-05,
                    2.45993
                ]
            ],
            [
                [
                    2.29486,
                    0.14545,
                    0.0
                ],
                [
                    -0.18656,
                    2.15579,
                    0.0
                ],
                [
                    -4e-05,
                    0.0,
                    2.45993
                ]
            ],
            [
                [
                    2.52343,
                    -0.67746,
                    0.0
                ],
                [
                    0.67711,
                    2.52354,
                    0.0
                ],
                [
                    0.0,
                    -0.0,
                    0.5524
                ]
            ],
            [
                [
                    2.83821,
                    -0.72458,
                    0.0
                ],
                [
                    0.72448,
                    2.83719,
                    0.0
                ],
                [
                    0.0,
                    -0.0,
                    0.34226
                ]
            ],
            [
                [
                    2.87086,
                    -0.66936,
                    0.0
                ],
                [
                    0.6697,
                    2.87131,
                    0.0
                ],
                [
                    0.0,
                    -0.0,
                    0.2994
                ]
            ],
            [
                [
                    -2.19588,
                    -0.2219,
                    0.0
                ],
                [
                    -0.59262,
                    -1.79698,
                    0.0
                ],
                [
                    -4e-05,
                    1e-05,
                    -1.1032
                ]
            ],
            [
                [
                    -2.24964,
                    0.56191,
                    0.0
                ],
                [
                    0.19112,
                    -1.74328,
                    0.0
                ],
                [
                    1e-05,
                    -5e-05,
                    -1.1032
                ]
            ],
            [
                [
                    -1.54404,
                    0.21647,
                    0.0
                ],
                [
                    -0.15433,
                    -2.44913,
                    0.0
                ],
                [
                    3e-05,
                    3e-05,
                    -1.1032
                ]
            ],
            [
                [
                    -1.51701,
                    0.45948,
                    0.0
                ],
                [
                    0.1031,
                    -2.54701,
                    0.0
                ],
                [
                    6e-05,
                    -0.00014,
                    -1.3743
                ]
            ],
            [
                [
                    -2.53294,
                    0.48341,
                    0.0
                ],
                [
                    0.12714,
                    -1.53076,
                    0.0
                ],
                [
                    -0.00015,
                    2e-05,
                    -1.3743
                ]
            ],
            [
                [
                    -2.04585,
                    -0.40847,
                    0.0
                ],
                [
                    -0.7645,
                    -2.01834,
                    0.0
                ],
                [
                    9e-05,
                    0.00012,
                    -1.3743
                ]
            ],
            [
                [
                    -2.45517,
                    0.58488,
                    0.0
                ],
                [
                    0.2637,
                    -1.60498,
                    0.0
                ],
                [
                    -0.00014,
                    5e-05,
                    -1.34822
                ]
            ],
            [
                [
                    -2.18507,
                    -0.41971,
                    0.0
                ],
                [
                    -0.74039,
                    -1.87483,
                    0.0
                ],
                [
                    0.00011,
                    0.0001,
                    -1.34822
                ]
            ],
            [
                [
                    -1.45012,
                    0.31629,
                    0.0
                ],
                [
                    -0.00481,
                    -2.6097,
                    0.0
                ],
                [
                    3e-05,
                    -0.00015,
                    -1.34822
                ]
            ]
        ]
    },
    "band_gap": 2.1581,
    "is_direct": false,
    "formula": "LiCdBO3"
}