{
    "mp_id": "mp-6391",
    "nelements": 4,
    "nsites": 16,
    "elements": [
        "Na",
        "O",
        "Si",
        "Zn"
    ],
    "structure": {
        "@module": "pymatgen.core.structure",
        "@class": "Structure",
        "charge": null,
        "lattice": {
            "matrix": [
                [
                    5.20389638,
                    0.0,
                    8.522e-05
                ],
                [
                    0.0,
                    5.4121843,
                    0.0
                ],
                [
                    -5.18133069,
                    0.0,
                    6.92240966
                ]
            ],
            "a": 5.203896380697789,
            "b": 5.4121843,
            "c": 8.64673020395555,
            "alpha": 90.0,
            "beta": 126.8134227607513,
            "gamma": 90.0,
            "volume": 194.9682248095677
        },
        "sites": [
            {
                "species": [
                    {
                        "element": "Na",
                        "occu": 1
                    }
                ],
                "abc": [
                    0.74384254,
                    0.67566316,
                    0.25298667
                ],
                "xyz": [
                    2.5600719037641024,
                    3.656813546640388,
                    1.751340758520491
                ],
                "label": "Na",
                "properties": {}
            },
            {
                "species": [
                    {
                        "element": "Na",
                        "occu": 1
                    }
                ],
                "abc": [
                    0.49220552,
                    0.18108067,
                    0.99771869
                ],
                "xyz": [
                    -2.608123944739579,
                    0.9800419592074809,
                    6.90665944337296
                ],
                "label": "Na",
                "properties": {}
            },
            {
                "species": [
                    {
                        "element": "Na",
                        "occu": 1
                    }
                ],
                "abc": [
                    0.74384254,
                    0.32433684,
                    0.75298667
                ],
                "xyz": [
                    -0.030593441235897245,
                    1.7553707533596121,
                    5.2125455885204905
                ],
                "label": "Na",
                "properties": {}
            },
            {
                "species": [
                    {
                        "element": "Na",
                        "occu": 1
                    }
                ],
                "abc": [
                    0.49220552,
                    0.81891933,
                    0.49771869
                ],
                "xyz": [
                    -0.01745859973957886,
                    4.4321423407925185,
                    3.4454546133729598
                ],
                "label": "Na",
                "properties": {}
            },
            {
                "species": [
                    {
                        "element": "Zn",
                        "occu": 1
                    }
                ],
                "abc": [
                    0.00770502,
                    0.81260473,
                    0.00333506
                ],
                "xyz": [
                    0.022816076954836197,
                    4.397966561811739,
                    0.023087308182484
                ],
                "label": "Zn",
                "properties": {}
            },
            {
                "species": [
                    {
                        "element": "Zn",
                        "occu": 1
                    }
                ],
                "abc": [
                    0.00770502,
                    0.18739527,
                    0.50333506
                ],
                "xyz": [
                    -2.5678492680451637,
                    1.0142177381882609,
                    3.4842921381824836
                ],
                "label": "Zn",
                "properties": {}
            },
            {
                "species": [
                    {
                        "element": "Si",
                        "occu": 1
                    }
                ],
                "abc": [
                    0.25875134,
                    0.68705175,
                    0.75085657
                ],
                "xyz": [
                    -2.543921028382984,
                    3.7184506946375246,
                    5.19775882423166
                ],
                "label": "Si",
                "properties": {}
            },
            {
                "species": [
                    {
                        "element": "Si",
                        "occu": 1
                    }
                ],
                "abc": [
                    0.25875134,
                    0.31294825,
                    0.25085657
                ],
                "xyz": [
                    0.04674431661701561,
                    1.693733605362475,
                    1.736553994231661
                ],
                "label": "Si",
                "properties": {}
            },
            {
                "species": [
                    {
                        "element": "O",
                        "occu": 1
                    }
                ],
                "abc": [
                    0.98234533,
                    0.84509768,
                    0.5562207
                ],
                "xyz": [
                    2.230059923373622,
                    4.573824395662424,
                    3.8504712622409847
                ],
                "label": "O",
                "properties": {}
            },
            {
                "species": [
                    {
                        "element": "O",
                        "occu": 1
                    }
                ],
                "abc": [
                    0.31348599,
                    0.2097356,
                    0.44756409
                ],
                "xyz": [
                    -0.6876289467172061,
                    1.13512772147108,
                    3.098248695361177
                ],
                "label": "O",
                "properties": {}
            },
            {
                "species": [
                    {
                        "element": "O",
                        "occu": 1
                    }
                ],
                "abc": [
                    0.1512436,
                    0.39363341,
                    0.72177898
                ],
                "xyz": [
                    -2.952719557932728,
                    2.130416561557463,
                    4.996462672516539
                ],
                "label": "O",
                "properties": {}
            },
            {
                "species": [
                    {
                        "element": "O",
                        "occu": 1
                    }
                ],
                "abc": [
                    0.60041966,
                    0.2886628,
                    0.27954123
                ],
                "xyz": [
                    1.676126141035482,
                    1.56229627415404,
                    1.9351500786837066
                ],
                "label": "O",
                "properties": {}
            },
            {
                "species": [
                    {
                        "element": "O",
                        "occu": 1
                    }
                ],
                "abc": [
                    0.31348599,
                    0.7902644,
                    0.94756409
                ],
                "xyz": [
                    -3.278294291717206,
                    4.27705657852892,
                    6.559453525361176
                ],
                "label": "O",
                "properties": {}
            },
            {
                "species": [
                    {
                        "element": "O",
                        "occu": 1
                    }
                ],
                "abc": [
                    0.60041966,
                    0.7113372,
                    0.77954123
                ],
                "xyz": [
                    -0.9145392039645182,
                    3.84988802584596,
                    5.396354908683707
                ],
                "label": "O",
                "properties": {}
            },
            {
                "species": [
                    {
                        "element": "O",
                        "occu": 1
                    }
                ],
                "abc": [
                    0.1512436,
                    0.60636659,
                    0.22177898
                ],
                "xyz": [
                    -0.3620542129327282,
                    3.281767738442537,
                    1.5352578425165386
                ],
                "label": "O",
                "properties": {}
            },
            {
                "species": [
                    {
                        "element": "O",
                        "occu": 1
                    }
                ],
                "abc": [
                    0.98234533,
                    0.15490232,
                    0.0562207
                ],
                "xyz": [
                    4.820725268373622,
                    0.838359904337576,
                    0.38926643224098456
                ],
                "label": "O",
                "properties": {}
            }
        ]
    },
    "spacegroup": {
        "source": "spglib",
        "symbol": "Pc",
        "number": 7,
        "point_group": "m",
        "crystal_system": "monoclinic",
        "hall": "P -2yc"
    },
    "dielectric": {
        "epsilon_ionic": [
            [
                3.61260877,
                1.46e-06,
                -0.01682305
            ],
            [
                1.46e-06,
                3.15546792,
                -4.9e-07
            ],
            [
                -0.01682305,
                -4.9e-07,
                2.48046675
            ]
        ],
        "epsilon_ionic_avg": 3.082847813333334,
        "epsilon_ionic_eig": [
            3.612858696730272,
            2.480216823274111,
            3.1554679199956186
        ],
        "epsilon_electronic": [
            [
                2.70496951,
                0.0,
                0.00164892
            ],
            [
                0.0,
                2.73278628,
                0.0
            ],
            [
                0.00165026,
                0.0,
                2.65518456
            ]
        ],
        "epsilon_electronic_avg": 2.697646783333333,
        "epsilon_electronic_eig": [
            2.7050241081418505,
            2.6551299618581496,
            2.73278628
        ]
    },
    "phonon": {
        "lowest_freq": -0.18956054666264965,
        "frequency": [
            -0.18956054666264965,
            -0.13667159806394713,
            -0.0945295213776857,
            3.289129373771765,
            3.51570706237955,
            3.7551347899405205,
            4.690402644473797,
            4.867916205848598,
            5.192409751937388,
            5.405076449258764,
            5.512522193399756,
            5.715089413799827,
            5.793888655523219,
            5.912471165348037,
            6.2238324460305305,
            6.3074088359518745,
            6.524698149187237,
            6.918760420241898,
            7.474687451092956,
            7.573062396887502,
            7.712073224012887,
            7.981770458648784,
            8.032758602027627,
            8.405600970864578,
            8.987883432597803,
            9.183273829522236,
            9.764869486129557,
            9.900835348948204,
            10.509215430245499,
            10.85724805753514,
            11.305359027827933,
            11.6152873904889,
            13.601258323287611,
            13.651578632196305,
            14.92155572732462,
            15.028340431180098,
            15.780753890294312,
            15.875440063502385,
            16.253509532828442,
            17.031392826446396,
            24.793978821676003,
            24.911156086413797,
            25.72214772935769,
            26.096079938304545,
            26.149607937906502,
            26.394069062753555,
            26.643142662850654,
            28.20880463900818
        ]
    },
    "born_effective_charge": {
        "avg_abs_trace": 1.69875375,
        "tensors": [
            [
                [
                    1.07151,
                    0.0106,
                    0.0165
                ],
                [
                    0.00872,
                    1.02807,
                    0.01678
                ],
                [
                    0.00135,
                    -0.01199,
                    1.06343
                ]
            ],
            [
                [
                    1.03178,
                    0.00647,
                    -0.01411
                ],
                [
                    0.0039,
                    1.01531,
                    -0.00122
                ],
                [
                    -0.00517,
                    0.02029,
                    0.99312
                ]
            ],
            [
                [
                    1.07151,
                    -0.0106,
                    0.0165
                ],
                [
                    -0.00872,
                    1.02807,
                    -0.01678
                ],
                [
                    0.00135,
                    0.01199,
                    1.06343
                ]
            ],
            [
                [
                    1.03178,
                    -0.00647,
                    -0.01411
                ],
                [
                    -0.0039,
                    1.01531,
                    0.00122
                ],
                [
                    -0.00517,
                    -0.02029,
                    0.99312
                ]
            ],
            [
                [
                    1.94125,
                    0.0548,
                    0.13399
                ],
                [
                    -0.03324,
                    1.99801,
                    -0.0896
                ],
                [
                    -0.12587,
                    0.14239,
                    1.85675
                ]
            ],
            [
                [
                    1.94125,
                    -0.0548,
                    0.13399
                ],
                [
                    0.03324,
                    1.99801,
                    0.0896
                ],
                [
                    -0.12587,
                    -0.14239,
                    1.85675
                ]
            ],
            [
                [
                    2.80022,
                    -0.09899,
                    -0.30026
                ],
                [
                    0.07977,
                    2.82077,
                    -0.29135
                ],
                [
                    0.3056,
                    0.25886,
                    2.76482
                ]
            ],
            [
                [
                    2.80022,
                    0.09899,
                    -0.30026
                ],
                [
                    -0.07977,
                    2.82077,
                    0.29135
                ],
                [
                    0.3056,
                    -0.25886,
                    2.76482
                ]
            ],
            [
                [
                    -1.30698,
                    0.05114,
                    -0.13111
                ],
                [
                    0.03433,
                    -1.99581,
                    0.57776
                ],
                [
                    -0.18573,
                    0.49982,
                    -1.79773
                ]
            ],
            [
                [
                    -1.93324,
                    -0.202,
                    0.56276
                ],
                [
                    -0.13872,
                    -1.32509,
                    0.16069
                ],
                [
                    0.45782,
                    0.30106,
                    -1.82268
                ]
            ],
            [
                [
                    -1.29694,
                    -0.10348,
                    0.05584
                ],
                [
                    -0.15994,
                    -2.30913,
                    -0.315
                ],
                [
                    -0.01391,
                    -0.45516,
                    -1.52356
                ]
            ],
            [
                [
                    -2.30761,
                    0.12349,
                    -0.32361
                ],
                [
                    0.13169,
                    -1.23213,
                    0.03204
                ],
                [
                    -0.43409,
                    0.17456,
                    -1.53415
                ]
            ],
            [
                [
                    -1.93324,
                    0.202,
                    0.56276
                ],
                [
                    0.13872,
                    -1.32509,
                    -0.16069
                ],
                [
                    0.45782,
                    -0.30106,
                    -1.82268
                ]
            ],
            [
                [
                    -2.30761,
                    -0.12349,
                    -0.32361
                ],
                [
                    -0.13169,
                    -1.23213,
                    -0.03204
                ],
                [
                    -0.43409,
                    -0.17456,
                    -1.53415
                ]
            ],
            [
                [
                    -1.29694,
                    0.10348,
                    0.05584
                ],
                [
                    0.15993,
                    -2.30913,
                    0.315
                ],
                [
                    -0.01391,
                    0.45516,
                    -1.52356
                ]
            ],
            [
                [
                    -1.30698,
                    -0.05114,
                    -0.13111
                ],
                [
                    -0.03433,
                    -1.99581,
                    -0.57776
                ],
                [
                    -0.18573,
                    -0.49982,
                    -1.79773
                ]
            ]
        ]
    },
    "band_gap": 3.5624,
    "is_direct": false,
    "formula": "Na2ZnSiO4"
}