{
    "mp_id": "mp-6564",
    "nelements": 4,
    "nsites": 24,
    "elements": [
        "Mg",
        "O",
        "Si",
        "Sr"
    ],
    "structure": {
        "@module": "pymatgen.core.structure",
        "@class": "Structure",
        "charge": null,
        "lattice": {
            "matrix": [
                [
                    8.01229617,
                    0.0,
                    0.0
                ],
                [
                    0.0,
                    8.01229617,
                    0.0
                ],
                [
                    0.0,
                    0.0,
                    5.15037932
                ]
            ],
            "a": 8.01229617,
            "b": 8.01229617,
            "c": 5.15037932,
            "alpha": 90.0,
            "beta": 90.0,
            "gamma": 90.0,
            "volume": 330.6383342306358
        },
        "sites": [
            {
                "species": [
                    {
                        "element": "Sr",
                        "occu": 1
                    }
                ],
                "abc": [
                    0.16536021,
                    0.66536021,
                    0.50781879
                ],
                "xyz": [
                    1.324914977253396,
                    5.3310630622533965,
                    2.6154593943234223
                ],
                "label": "Sr",
                "properties": {}
            },
            {
                "species": [
                    {
                        "element": "Sr",
                        "occu": 1
                    }
                ],
                "abc": [
                    0.66536021,
                    0.83463979,
                    0.49218121
                ],
                "xyz": [
                    5.3310630622533965,
                    6.687381192746605,
                    2.534919925676577
                ],
                "label": "Sr",
                "properties": {}
            },
            {
                "species": [
                    {
                        "element": "Sr",
                        "occu": 1
                    }
                ],
                "abc": [
                    0.33463979,
                    0.16536021,
                    0.49218121
                ],
                "xyz": [
                    2.6812331077466047,
                    1.324914977253396,
                    2.534919925676577
                ],
                "label": "Sr",
                "properties": {}
            },
            {
                "species": [
                    {
                        "element": "Sr",
                        "occu": 1
                    }
                ],
                "abc": [
                    0.83463979,
                    0.33463979,
                    0.50781879
                ],
                "xyz": [
                    6.687381192746605,
                    2.6812331077466047,
                    2.6154593943234223
                ],
                "label": "Sr",
                "properties": {}
            },
            {
                "species": [
                    {
                        "element": "Mg",
                        "occu": 1
                    }
                ],
                "abc": [
                    0.0,
                    0.0,
                    0.0
                ],
                "xyz": [
                    0.0,
                    0.0,
                    0.0
                ],
                "label": "Mg",
                "properties": {}
            },
            {
                "species": [
                    {
                        "element": "Mg",
                        "occu": 1
                    }
                ],
                "abc": [
                    0.5,
                    0.5,
                    0.0
                ],
                "xyz": [
                    4.006148085,
                    4.006148085,
                    0.0
                ],
                "label": "Mg",
                "properties": {}
            },
            {
                "species": [
                    {
                        "element": "Si",
                        "occu": 1
                    }
                ],
                "abc": [
                    0.36080958,
                    0.86080958,
                    0.9434084
                ],
                "xyz": [
                    2.890913215933309,
                    6.897061300933309,
                    4.858911113674288
                ],
                "label": "Si",
                "properties": {}
            },
            {
                "species": [
                    {
                        "element": "Si",
                        "occu": 1
                    }
                ],
                "abc": [
                    0.63919042,
                    0.13919042,
                    0.9434084
                ],
                "xyz": [
                    5.121382954066692,
                    1.1152348690666916,
                    4.858911113674288
                ],
                "label": "Si",
                "properties": {}
            },
            {
                "species": [
                    {
                        "element": "Si",
                        "occu": 1
                    }
                ],
                "abc": [
                    0.86080958,
                    0.63919042,
                    0.0565916
                ],
                "xyz": [
                    6.897061300933309,
                    5.121382954066692,
                    0.29146820632571196
                ],
                "label": "Si",
                "properties": {}
            },
            {
                "species": [
                    {
                        "element": "Si",
                        "occu": 1
                    }
                ],
                "abc": [
                    0.13919042,
                    0.36080958,
                    0.0565916
                ],
                "xyz": [
                    1.1152348690666916,
                    2.890913215933309,
                    0.29146820632571196
                ],
                "label": "Si",
                "properties": {}
            },
            {
                "species": [
                    {
                        "element": "O",
                        "occu": 1
                    }
                ],
                "abc": [
                    0.42054513,
                    0.68880359,
                    0.79874985
                ],
                "xyz": [
                    3.3695321344111524,
                    5.518898366039251,
                    4.113864709293102
                ],
                "label": "O",
                "properties": {}
            },
            {
                "species": [
                    {
                        "element": "O",
                        "occu": 1
                    }
                ],
                "abc": [
                    0.57945487,
                    0.31119641,
                    0.79874985
                ],
                "xyz": [
                    4.642764035588848,
                    2.49339780396075,
                    4.113864709293102
                ],
                "label": "O",
                "properties": {}
            },
            {
                "species": [
                    {
                        "element": "O",
                        "occu": 1
                    }
                ],
                "abc": [
                    0.31119641,
                    0.42054513,
                    0.20125015
                ],
                "xyz": [
                    2.49339780396075,
                    3.3695321344111524,
                    1.0365146107068979
                ],
                "label": "O",
                "properties": {}
            },
            {
                "species": [
                    {
                        "element": "O",
                        "occu": 1
                    }
                ],
                "abc": [
                    0.68880359,
                    0.57945487,
                    0.20125015
                ],
                "xyz": [
                    5.518898366039251,
                    4.642764035588848,
                    1.0365146107068979
                ],
                "label": "O",
                "properties": {}
            },
            {
                "species": [
                    {
                        "element": "O",
                        "occu": 1
                    }
                ],
                "abc": [
                    0.18880359,
                    0.92054513,
                    0.79874985
                ],
                "xyz": [
                    1.5127502810392504,
                    7.375680219411153,
                    4.113864709293102
                ],
                "label": "O",
                "properties": {}
            },
            {
                "species": [
                    {
                        "element": "O",
                        "occu": 1
                    }
                ],
                "abc": [
                    0.92054513,
                    0.81119641,
                    0.20125015
                ],
                "xyz": [
                    7.375680219411153,
                    6.49954588896075,
                    1.0365146107068979
                ],
                "label": "O",
                "properties": {}
            },
            {
                "species": [
                    {
                        "element": "O",
                        "occu": 1
                    }
                ],
                "abc": [
                    0.07945487,
                    0.18880359,
                    0.20125015
                ],
                "xyz": [
                    0.6366159505888479,
                    1.5127502810392504,
                    1.0365146107068979
                ],
                "label": "O",
                "properties": {}
            },
            {
                "species": [
                    {
                        "element": "O",
                        "occu": 1
                    }
                ],
                "abc": [
                    0.81119641,
                    0.07945487,
                    0.79874985
                ],
                "xyz": [
                    6.49954588896075,
                    0.6366159505888479,
                    4.113864709293102
                ],
                "label": "O",
                "properties": {}
            },
            {
                "species": [
                    {
                        "element": "O",
                        "occu": 1
                    }
                ],
                "abc": [
                    0.36014656,
                    0.86014656,
                    0.25707625
                ],
                "xyz": [
                    2.8856009033266754,
                    6.891748988326676,
                    1.32404020166315
                ],
                "label": "O",
                "properties": {}
            },
            {
                "species": [
                    {
                        "element": "O",
                        "occu": 1
                    }
                ],
                "abc": [
                    0.86014656,
                    0.63985344,
                    0.74292375
                ],
                "xyz": [
                    6.891748988326676,
                    5.126695266673325,
                    3.82633911833685
                ],
                "label": "O",
                "properties": {}
            },
            {
                "species": [
                    {
                        "element": "O",
                        "occu": 1
                    }
                ],
                "abc": [
                    0.0,
                    0.5,
                    0.16624713
                ],
                "xyz": [
                    0.0,
                    4.006148085,
                    0.8562357803613515
                ],
                "label": "O",
                "properties": {}
            },
            {
                "species": [
                    {
                        "element": "O",
                        "occu": 1
                    }
                ],
                "abc": [
                    0.5,
                    0.0,
                    0.83375287
                ],
                "xyz": [
                    4.006148085,
                    0.0,
                    4.2941435396386485
                ],
                "label": "O",
                "properties": {}
            },
            {
                "species": [
                    {
                        "element": "O",
                        "occu": 1
                    }
                ],
                "abc": [
                    0.63985344,
                    0.13985344,
                    0.25707625
                ],
                "xyz": [
                    5.126695266673325,
                    1.1205471816733248,
                    1.32404020166315
                ],
                "label": "O",
                "properties": {}
            },
            {
                "species": [
                    {
                        "element": "O",
                        "occu": 1
                    }
                ],
                "abc": [
                    0.13985344,
                    0.36014656,
                    0.74292375
                ],
                "xyz": [
                    1.1205471816733248,
                    2.8856009033266754,
                    3.82633911833685
                ],
                "label": "O",
                "properties": {}
            }
        ]
    },
    "spacegroup": {
        "source": "spglib",
        "symbol": "P-42_1m",
        "number": 113,
        "point_group": "-42m",
        "crystal_system": "tetragonal",
        "hall": "P -4 2ab"
    },
    "dielectric": {
        "epsilon_ionic": [
            [
                6.17202455,
                -1e-08,
                -0.0
            ],
            [
                -1e-08,
                6.17202525,
                -0.0
            ],
            [
                -0.0,
                -0.0,
                4.16600357
            ]
        ],
        "epsilon_ionic_avg": 5.503351123333334,
        "epsilon_ionic_eig": [
            6.172024549857172,
            6.172025250142828,
            4.16600357
        ],
        "epsilon_electronic": [
            [
                2.86793956,
                0.0,
                0.0
            ],
            [
                0.0,
                2.86793956,
                -0.0
            ],
            [
                0.0,
                -0.0,
                2.92127693
            ]
        ],
        "epsilon_electronic_avg": 2.8857186833333333,
        "epsilon_electronic_eig": [
            2.86793956,
            2.86793956,
            2.92127693
        ]
    },
    "phonon": {
        "lowest_freq": -0.10680503944882916,
        "frequency": [
            -0.10680503944882916,
            -0.10680503944882916,
            -0.01872782478681292,
            2.3105940920073182,
            2.518881484639519,
            2.518881484639519,
            2.762726002333123,
            3.289268295961835,
            3.706587798818372,
            3.706587798818372,
            3.8908797570708944,
            3.8908797570708944,
            4.49979655242402,
            4.543322903037847,
            4.734267445533014,
            4.997241704522429,
            4.997241704522429,
            5.219919131714815,
            5.623540807848354,
            5.623540807848354,
            5.9635640794881395,
            5.976267068540423,
            6.111980382911837,
            6.111980382911837,
            6.214812292992363,
            6.457058930645801,
            6.457058930645801,
            7.190022309584497,
            7.303207924004457,
            7.5852671754813725,
            7.949680084081494,
            8.596994273773646,
            8.780847737237941,
            9.13099315452123,
            9.13099315452123,
            10.253609427761527,
            10.253609427761527,
            10.488057150855509,
            11.13815489997107,
            11.13815489997107,
            12.754328869438016,
            12.817698147716458,
            13.277247440643713,
            13.277247440643713,
            13.613484255785501,
            13.75879179386465,
            14.11257178920945,
            14.593604242907189,
            14.593604242907189,
            15.023147466104598,
            16.603536269547657,
            16.603536269547657,
            17.082346065907593,
            17.589602144134005,
            17.589602144134005,
            17.80006015107858,
            18.932940470394165,
            19.428301140293605,
            24.665700682729224,
            24.665700682729224,
            26.342331343641693,
            26.470240284114052,
            27.013451766510858,
            27.149063894641813,
            27.149063894641813,
            28.433254870136917,
            28.433254870136917,
            28.885452130094606,
            29.10354641064891,
            29.167752840366074,
            29.604369984843952,
            29.604369984843952
        ]
    },
    "born_effective_charge": {
        "avg_abs_trace": 2.065067361111111,
        "tensors": [
            [
                [
                    2.39262,
                    0.31659,
                    0.15081
                ],
                [
                    0.3166,
                    2.39262,
                    0.15081
                ],
                [
                    0.02987,
                    0.02987,
                    2.54153
                ]
            ],
            [
                [
                    2.39262,
                    -0.31659,
                    -0.15081
                ],
                [
                    -0.31661,
                    2.39256,
                    0.15078
                ],
                [
                    -0.02981,
                    0.02981,
                    2.54155
                ]
            ],
            [
                [
                    2.39256,
                    -0.31662,
                    0.15078
                ],
                [
                    -0.3166,
                    2.39262,
                    -0.15081
                ],
                [
                    0.02981,
                    -0.02981,
                    2.54155
                ]
            ],
            [
                [
                    2.39256,
                    0.31662,
                    -0.15078
                ],
                [
                    0.31661,
                    2.39256,
                    -0.15078
                ],
                [
                    -0.02987,
                    -0.02987,
                    2.54153
                ]
            ],
            [
                [
                    2.13883,
                    -0.01856,
                    -0.0
                ],
                [
                    0.01856,
                    2.13883,
                    -0.0
                ],
                [
                    -0.0,
                    -0.0,
                    1.55146
                ]
            ],
            [
                [
                    2.13883,
                    0.01856,
                    0.0
                ],
                [
                    -0.01856,
                    2.13883,
                    0.0
                ],
                [
                    -0.0,
                    -0.0,
                    1.55146
                ]
            ],
            [
                [
                    2.69252,
                    0.10547,
                    -0.02601
                ],
                [
                    0.10546,
                    2.69252,
                    -0.026
                ],
                [
                    0.03081,
                    0.03081,
                    2.95925
                ]
            ],
            [
                [
                    2.69258,
                    0.10542,
                    0.02602
                ],
                [
                    0.10542,
                    2.69258,
                    0.02603
                ],
                [
                    -0.03081,
                    -0.03081,
                    2.95925
                ]
            ],
            [
                [
                    2.69252,
                    -0.10547,
                    0.02601
                ],
                [
                    -0.10542,
                    2.69258,
                    -0.02603
                ],
                [
                    -0.03078,
                    0.03078,
                    2.9592
                ]
            ],
            [
                [
                    2.69258,
                    -0.10542,
                    -0.02602
                ],
                [
                    -0.10546,
                    2.69252,
                    0.026
                ],
                [
                    0.03078,
                    -0.03078,
                    2.9592
                ]
            ],
            [
                [
                    -1.66293,
                    0.06917,
                    -0.03186
                ],
                [
                    0.16345,
                    -1.95324,
                    -0.19516
                ],
                [
                    -0.02834,
                    -0.10001,
                    -1.61762
                ]
            ],
            [
                [
                    -1.6629,
                    0.06903,
                    0.032
                ],
                [
                    0.16337,
                    -1.9531,
                    0.19508
                ],
                [
                    0.02834,
                    0.10001,
                    -1.61762
                ]
            ],
            [
                [
                    -1.95311,
                    -0.16336,
                    -0.19508
                ],
                [
                    -0.06917,
                    -1.66292,
                    0.03187
                ],
                [
                    -0.09989,
                    0.02835,
                    -1.61744
                ]
            ],
            [
                [
                    -1.95324,
                    -0.16346,
                    0.19516
                ],
                [
                    -0.06903,
                    -1.6629,
                    -0.03199
                ],
                [
                    0.09989,
                    -0.02835,
                    -1.61744
                ]
            ],
            [
                [
                    -1.95324,
                    0.16346,
                    -0.19516
                ],
                [
                    0.06917,
                    -1.66292,
                    -0.03187
                ],
                [
                    -0.10001,
                    -0.02834,
                    -1.61762
                ]
            ],
            [
                [
                    -1.66293,
                    -0.06917,
                    0.03186
                ],
                [
                    -0.16337,
                    -1.9531,
                    -0.19508
                ],
                [
                    0.02835,
                    -0.09989,
                    -1.61744
                ]
            ],
            [
                [
                    -1.6629,
                    -0.06903,
                    -0.032
                ],
                [
                    -0.16345,
                    -1.95324,
                    0.19516
                ],
                [
                    -0.02835,
                    0.09989,
                    -1.61744
                ]
            ],
            [
                [
                    -1.95311,
                    0.16336,
                    0.19508
                ],
                [
                    0.06903,
                    -1.6629,
                    0.03199
                ],
                [
                    0.10001,
                    0.02834,
                    -1.61762
                ]
            ],
            [
                [
                    -1.51241,
                    -0.11307,
                    0.04559
                ],
                [
                    -0.11308,
                    -1.51241,
                    0.0456
                ],
                [
                    0.00098,
                    0.00098,
                    -2.2503
                ]
            ],
            [
                [
                    -1.51241,
                    0.11307,
                    -0.04559
                ],
                [
                    0.11303,
                    -1.51249,
                    0.04558
                ],
                [
                    -0.00104,
                    0.00104,
                    -2.25007
                ]
            ],
            [
                [
                    -2.05204,
                    0.77096,
                    -1e-05
                ],
                [
                    0.77096,
                    -2.05204,
                    -2e-05
                ],
                [
                    -0.0,
                    -0.0,
                    -1.58252
                ]
            ],
            [
                [
                    -2.05204,
                    -0.77096,
                    1e-05
                ],
                [
                    -0.77096,
                    -2.05204,
                    2e-05
                ],
                [
                    -0.0,
                    -0.0,
                    -1.58247
                ]
            ],
            [
                [
                    -1.5125,
                    -0.11303,
                    -0.04558
                ],
                [
                    -0.11303,
                    -1.51249,
                    -0.04558
                ],
                [
                    -0.00098,
                    -0.00098,
                    -2.2503
                ]
            ],
            [
                [
                    -1.5125,
                    0.11303,
                    0.04558
                ],
                [
                    0.11308,
                    -1.51241,
                    -0.0456
                ],
                [
                    0.00104,
                    -0.00104,
                    -2.25007
                ]
            ]
        ]
    },
    "band_gap": 4.513,
    "is_direct": false,
    "formula": "Sr2MgSi2O7"
}