{
    "mp_id": "mp-676861",
    "nelements": 3,
    "nsites": 6,
    "elements": [
        "Al",
        "O",
        "Sb"
    ],
    "structure": {
        "@module": "pymatgen.core.structure",
        "@class": "Structure",
        "charge": null,
        "lattice": {
            "matrix": [
                [
                    3.1503113,
                    -3.23534959,
                    0.0
                ],
                [
                    3.1503113,
                    3.23534959,
                    0.0
                ],
                [
                    0.0,
                    0.0,
                    3.03047646
                ]
            ],
            "a": 4.515744485289315,
            "b": 4.515744485289315,
            "c": 3.03047646,
            "alpha": 90.0,
            "beta": 90.0,
            "gamma": 91.52593355693661,
            "volume": 61.77540424147448
        },
        "sites": [
            {
                "species": [
                    {
                        "element": "Al",
                        "occu": 1
                    }
                ],
                "abc": [
                    0.5,
                    0.5,
                    0.5
                ],
                "xyz": [
                    3.1503113,
                    0.0,
                    1.51523823
                ],
                "label": "Al",
                "properties": {}
            },
            {
                "species": [
                    {
                        "element": "Sb",
                        "occu": 1
                    }
                ],
                "abc": [
                    0.0,
                    0.0,
                    0.0
                ],
                "xyz": [
                    0.0,
                    0.0,
                    0.0
                ],
                "label": "Sb",
                "properties": {}
            },
            {
                "species": [
                    {
                        "element": "O",
                        "occu": 1
                    }
                ],
                "abc": [
                    0.68806695,
                    0.68806695,
                    0.0
                ],
                "xyz": [
                    4.335250175483069,
                    0.0,
                    0.0
                ],
                "label": "O",
                "properties": {}
            },
            {
                "species": [
                    {
                        "element": "O",
                        "occu": 1
                    }
                ],
                "abc": [
                    0.79770506,
                    0.20229494,
                    0.5
                ],
                "xyz": [
                    3.1503112999999994,
                    -1.9263598876238506,
                    1.51523823
                ],
                "label": "O",
                "properties": {}
            },
            {
                "species": [
                    {
                        "element": "O",
                        "occu": 1
                    }
                ],
                "abc": [
                    0.20229494,
                    0.79770506,
                    0.5
                ],
                "xyz": [
                    3.1503112999999994,
                    1.9263598876238506,
                    1.51523823
                ],
                "label": "O",
                "properties": {}
            },
            {
                "species": [
                    {
                        "element": "O",
                        "occu": 1
                    }
                ],
                "abc": [
                    0.31193305,
                    0.31193305,
                    0.0
                ],
                "xyz": [
                    1.9653724245169297,
                    0.0,
                    0.0
                ],
                "label": "O",
                "properties": {}
            }
        ]
    },
    "spacegroup": {
        "source": "spglib",
        "symbol": "Cmmm",
        "number": 65,
        "point_group": "mmm",
        "crystal_system": "orthorhombic",
        "hall": "-C 2 2"
    },
    "dielectric": {
        "epsilon_ionic": [
            [
                7.35612806,
                -0.0,
                1e-08
            ],
            [
                -0.0,
                6.83860256,
                0.0
            ],
            [
                1e-08,
                0.0,
                6.14674178
            ]
        ],
        "epsilon_ionic_avg": 6.7804908,
        "epsilon_ionic_eig": [
            7.35612806,
            6.14674178,
            6.83860256
        ],
        "epsilon_electronic": [
            [
                4.22673566,
                -0.0,
                0.0
            ],
            [
                -0.0,
                3.69811182,
                0.0
            ],
            [
                0.0,
                0.0,
                4.17192763
            ]
        ],
        "epsilon_electronic_avg": 4.03225837,
        "epsilon_electronic_eig": [
            4.22673566,
            3.69811182,
            4.17192763
        ]
    },
    "phonon": {
        "lowest_freq": -0.02223704088910747,
        "frequency": [
            -0.02223704088910747,
            -0.011771453582985683,
            -0.004311245236166132,
            4.586851208637204,
            6.927340733224488,
            8.849646828637415,
            9.256358507181586,
            12.276953843677347,
            12.763221721846154,
            12.791366655465861,
            13.535239832933787,
            14.723555072266569,
            16.563495199505606,
            18.19947446411579,
            19.381652713233734,
            19.531590468619466,
            19.90724518040253,
            23.754556596622905
        ]
    },
    "born_effective_charge": {
        "avg_abs_trace": 2.64557,
        "tensors": [
            [
                [
                    3.21064,
                    0.0,
                    0.0
                ],
                [
                    0.0,
                    3.6078,
                    0.0
                ],
                [
                    0.0,
                    0.0,
                    3.17675
                ]
            ],
            [
                [
                    4.63627,
                    0.0,
                    0.0
                ],
                [
                    0.0,
                    3.72951,
                    0.0
                ],
                [
                    0.0,
                    0.0,
                    5.44916
                ]
            ],
            [
                [
                    -2.63502,
                    0.0,
                    0.0
                ],
                [
                    4e-05,
                    -1.39049,
                    0.0
                ],
                [
                    -3e-05,
                    0.0,
                    -2.03528
                ]
            ],
            [
                [
                    -1.28852,
                    -0.00012,
                    0.0
                ],
                [
                    0.0,
                    -2.27819,
                    0.0
                ],
                [
                    0.0,
                    -0.00017,
                    -2.27768
                ]
            ],
            [
                [
                    -1.28852,
                    0.00012,
                    0.0
                ],
                [
                    0.0,
                    -2.27814,
                    0.0
                ],
                [
                    0.0,
                    0.00017,
                    -2.27768
                ]
            ],
            [
                [
                    -2.63484,
                    0.0,
                    0.0
                ],
                [
                    -4e-05,
                    -1.39049,
                    0.0
                ],
                [
                    3e-05,
                    0.0,
                    -2.03528
                ]
            ]
        ]
    },
    "band_gap": 1.7217000000000002,
    "is_direct": true,
    "formula": "AlSbO4"
}