{
    "mp_id": "mp-6661",
    "nelements": 4,
    "nsites": 28,
    "elements": [
        "Ba",
        "O",
        "Si",
        "Ti"
    ],
    "structure": {
        "@module": "pymatgen.core.structure",
        "@class": "Structure",
        "charge": null,
        "lattice": {
            "matrix": [
                [
                    6.66738571,
                    -0.0,
                    0.0
                ],
                [
                    -3.33369335,
                    5.77412597,
                    0.0
                ],
                [
                    0.0,
                    0.0,
                    9.87349693
                ]
            ],
            "a": 6.66738571,
            "b": 6.667386449671465,
            "c": 9.87349693,
            "alpha": 90.0,
            "beta": 90.0,
            "gamma": 120.00000124198611,
            "volume": 380.11309350133627
        },
        "sites": [
            {
                "species": [
                    {
                        "element": "Ba",
                        "occu": 1
                    }
                ],
                "abc": [
                    0.666667,
                    0.333333,
                    0.5
                ],
                "xyz": [
                    3.3336960236930198,
                    1.92470673195801,
                    4.936748465
                ],
                "label": "Ba",
                "properties": {}
            },
            {
                "species": [
                    {
                        "element": "Ba",
                        "occu": 1
                    }
                ],
                "abc": [
                    0.666667,
                    0.333333,
                    0.0
                ],
                "xyz": [
                    3.3336960236930198,
                    1.92470673195801,
                    0.0
                ],
                "label": "Ba",
                "properties": {}
            },
            {
                "species": [
                    {
                        "element": "Ti",
                        "occu": 1
                    }
                ],
                "abc": [
                    0.333333,
                    0.666667,
                    0.5
                ],
                "xyz": [
                    -3.663693020516945e-06,
                    3.8494192380419903,
                    4.936748465
                ],
                "label": "Ti",
                "properties": {}
            },
            {
                "species": [
                    {
                        "element": "Ti",
                        "occu": 1
                    }
                ],
                "abc": [
                    0.333333,
                    0.666667,
                    0.0
                ],
                "xyz": [
                    -3.663693020516945e-06,
                    3.8494192380419903,
                    0.0
                ],
                "label": "Ti",
                "properties": {}
            },
            {
                "species": [
                    {
                        "element": "Si",
                        "occu": 1
                    }
                ],
                "abc": [
                    0.21983892,
                    0.93075075,
                    0.25
                ],
                "xyz": [
                    -1.6370867120726793,
                    5.374272077171978,
                    2.4683742325
                ],
                "label": "Si",
                "properties": {}
            },
            {
                "species": [
                    {
                        "element": "Si",
                        "occu": 1
                    }
                ],
                "abc": [
                    0.21983892,
                    0.28908817,
                    0.75
                ],
                "xyz": [
                    0.5020195638171636,
                    1.6692315100167747,
                    7.4051226974999995
                ],
                "label": "Si",
                "properties": {}
            },
            {
                "species": [
                    {
                        "element": "Si",
                        "occu": 1
                    }
                ],
                "abc": [
                    0.71091183,
                    0.93075075,
                    0.75
                ],
                "xyz": [
                    1.6370857906294365,
                    5.374272077171978,
                    7.4051226974999995
                ],
                "label": "Si",
                "properties": {}
            },
            {
                "species": [
                    {
                        "element": "Si",
                        "occu": 1
                    }
                ],
                "abc": [
                    0.71091183,
                    0.78016108,
                    0.25
                ],
                "xyz": [
                    2.1391055720871313,
                    4.504748352811247,
                    2.4683742325
                ],
                "label": "Si",
                "properties": {}
            },
            {
                "species": [
                    {
                        "element": "Si",
                        "occu": 1
                    }
                ],
                "abc": [
                    0.06924925,
                    0.28908817,
                    0.25
                ],
                "xyz": [
                    -0.5020198500144519,
                    1.6692315100167747,
                    2.4683742325
                ],
                "label": "Si",
                "properties": {}
            },
            {
                "species": [
                    {
                        "element": "Si",
                        "occu": 1
                    }
                ],
                "abc": [
                    0.06924925,
                    0.78016108,
                    0.75
                ],
                "xyz": [
                    -2.1391063444466,
                    4.504748352811247,
                    7.4051226974999995
                ],
                "label": "Si",
                "properties": {}
            },
            {
                "species": [
                    {
                        "element": "O",
                        "occu": 1
                    }
                ],
                "abc": [
                    0.08344854,
                    0.65418544,
                    0.61301107
                ],
                "xyz": [
                    -1.6244700478784604,
                    3.777349138299877,
                    6.052562917701015
                ],
                "label": "O",
                "properties": {}
            },
            {
                "species": [
                    {
                        "element": "O",
                        "occu": 1
                    }
                ],
                "abc": [
                    0.34581456,
                    0.91655146,
                    0.38698893
                ],
                "xyz": [
                    -0.7498224514808531,
                    5.292283588027416,
                    3.8209340122989848
                ],
                "label": "O",
                "properties": {}
            },
            {
                "species": [
                    {
                        "element": "O",
                        "occu": 1
                    }
                ],
                "abc": [
                    0.5707359,
                    0.91655146,
                    0.61301107
                ],
                "xyz": [
                    0.7498148767091979,
                    5.292283588027416,
                    6.052562917701015
                ],
                "label": "O",
                "properties": {}
            },
            {
                "species": [
                    {
                        "element": "O",
                        "occu": 1
                    }
                ],
                "abc": [
                    0.34581456,
                    0.4292641,
                    0.88698893
                ],
                "xyz": [
                    0.8746441800902025,
                    2.478624987798677,
                    8.757682477298985
                ],
                "label": "O",
                "properties": {}
            },
            {
                "species": [
                    {
                        "element": "O",
                        "occu": 1
                    }
                ],
                "abc": [
                    0.5707359,
                    0.91655146,
                    0.88698893
                ],
                "xyz": [
                    0.7498148767091979,
                    5.292283588027416,
                    8.757682477298985
                ],
                "label": "O",
                "properties": {}
            },
            {
                "species": [
                    {
                        "element": "O",
                        "occu": 1
                    }
                ],
                "abc": [
                    0.08344854,
                    0.65418544,
                    0.88698893
                ],
                "xyz": [
                    -1.6244700478784604,
                    3.777349138299877,
                    8.757682477298985
                ],
                "label": "O",
                "properties": {}
            },
            {
                "species": [
                    {
                        "element": "O",
                        "occu": 1
                    }
                ],
                "abc": [
                    0.5707359,
                    0.65418544,
                    0.11301107
                ],
                "xyz": [
                    1.6244627328491648,
                    3.777349138299877,
                    1.1158144527010152
                ],
                "label": "O",
                "properties": {}
            },
            {
                "species": [
                    {
                        "element": "O",
                        "occu": 1
                    }
                ],
                "abc": [
                    0.08344854,
                    0.4292641,
                    0.11301107
                ],
                "xyz": [
                    -0.8746512724473716,
                    2.478624987798677,
                    1.1158144527010152
                ],
                "label": "O",
                "properties": {}
            },
            {
                "species": [
                    {
                        "element": "O",
                        "occu": 1
                    }
                ],
                "abc": [
                    0.25534975,
                    0.19507651,
                    0.25
                ],
                "xyz": [
                    1.052190010073864,
                    1.1263963425279648,
                    2.4683742325
                ],
                "label": "O",
                "properties": {}
            },
            {
                "species": [
                    {
                        "element": "O",
                        "occu": 1
                    }
                ],
                "abc": [
                    0.93972676,
                    0.74465025,
                    0.25
                ],
                "xyz": [
                    3.783085184427762,
                    4.299704347091993,
                    2.4683742325
                ],
                "label": "O",
                "properties": {}
            },
            {
                "species": [
                    {
                        "element": "O",
                        "occu": 1
                    }
                ],
                "abc": [
                    0.80492349,
                    0.06027324,
                    0.25
                ],
                "xyz": [
                    5.165802875498373,
                    0.3480252803800428,
                    2.4683742325
                ],
                "label": "O",
                "properties": {}
            },
            {
                "species": [
                    {
                        "element": "O",
                        "occu": 1
                    }
                ],
                "abc": [
                    0.80492349,
                    0.74465025,
                    0.75
                ],
                "xyz": [
                    2.8842997883684895,
                    4.299704347091993,
                    7.4051226974999995
                ],
                "label": "O",
                "properties": {}
            },
            {
                "species": [
                    {
                        "element": "O",
                        "occu": 1
                    }
                ],
                "abc": [
                    0.5707359,
                    0.65418544,
                    0.38698893
                ],
                "xyz": [
                    1.6244627328491648,
                    3.777349138299877,
                    3.8209340122989848
                ],
                "label": "O",
                "properties": {}
            },
            {
                "species": [
                    {
                        "element": "O",
                        "occu": 1
                    }
                ],
                "abc": [
                    0.25534975,
                    0.06027324,
                    0.75
                ],
                "xyz": [
                    1.5015827748311183,
                    0.3480252803800428,
                    7.4051226974999995
                ],
                "label": "O",
                "properties": {}
            },
            {
                "species": [
                    {
                        "element": "O",
                        "occu": 1
                    }
                ],
                "abc": [
                    0.93972676,
                    0.19507651,
                    0.75
                ],
                "xyz": [
                    5.615195506800391,
                    1.1263963425279648,
                    7.4051226974999995
                ],
                "label": "O",
                "properties": {}
            },
            {
                "species": [
                    {
                        "element": "O",
                        "occu": 1
                    }
                ],
                "abc": [
                    0.08344854,
                    0.4292641,
                    0.38698893
                ],
                "xyz": [
                    -0.8746512724473716,
                    2.478624987798677,
                    3.8209340122989848
                ],
                "label": "O",
                "properties": {}
            },
            {
                "species": [
                    {
                        "element": "O",
                        "occu": 1
                    }
                ],
                "abc": [
                    0.34581456,
                    0.91655146,
                    0.11301107
                ],
                "xyz": [
                    -0.7498224514808531,
                    5.292283588027416,
                    1.1158144527010152
                ],
                "label": "O",
                "properties": {}
            },
            {
                "species": [
                    {
                        "element": "O",
                        "occu": 1
                    }
                ],
                "abc": [
                    0.34581456,
                    0.4292641,
                    0.61301107
                ],
                "xyz": [
                    0.8746441800902025,
                    2.478624987798677,
                    6.052562917701015
                ],
                "label": "O",
                "properties": {}
            }
        ]
    },
    "spacegroup": {
        "source": "spglib",
        "symbol": "P-6c2",
        "number": 188,
        "point_group": "-6m2",
        "crystal_system": "hexagonal",
        "hall": "P -6c 2"
    },
    "dielectric": {
        "epsilon_ionic": [
            [
                5.99324726,
                -2.3e-07,
                -0.0
            ],
            [
                -2.3e-07,
                5.99338702,
                -0.0
            ],
            [
                -0.0,
                -0.0,
                7.14775149
            ]
        ],
        "epsilon_ionic_avg": 6.37812859,
        "epsilon_ionic_eig": [
            5.993247259621495,
            5.993387020378505,
            7.14775149
        ],
        "epsilon_electronic": [
            [
                3.26982624,
                0.0,
                0.0
            ],
            [
                0.0,
                3.26982664,
                0.0
            ],
            [
                0.0,
                0.0,
                3.46683076
            ]
        ],
        "epsilon_electronic_avg": 3.335494546666667,
        "epsilon_electronic_eig": [
            3.26982624,
            3.26982664,
            3.46683076
        ]
    },
    "phonon": {
        "lowest_freq": -0.052509311765303046,
        "frequency": [
            -0.052509311765303046,
            -0.00965410698329611,
            -0.009654106413693648,
            2.031686876289823,
            2.0804420387643643,
            2.2363234364607636,
            2.236323562140323,
            3.316620844157861,
            3.31662103943503,
            3.866721231209385,
            3.866721278613914,
            4.580543752150282,
            4.659280219812203,
            4.6592804794618825,
            4.762215321053094,
            4.7622153800718765,
            5.463689602429759,
            5.784969006992469,
            6.036684983400206,
            6.036685003643115,
            6.644615343992275,
            6.644615417555639,
            6.702103651198871,
            6.702103869995959,
            7.545714217833355,
            7.545714476947466,
            7.615657239309484,
            7.976572878972263,
            8.167999115170854,
            8.167999279740007,
            8.96652355766389,
            9.711540142439565,
            9.712273878319067,
            10.297083284848418,
            10.297083332318197,
            10.511265623705096,
            10.883630929340168,
            10.883630974251675,
            10.89067523137894,
            11.061489799396512,
            11.061489987201332,
            11.266527374038612,
            11.266527374038612,
            11.359742842974667,
            11.359743079635079,
            12.380047457562615,
            12.719342415397504,
            12.719342578723644,
            14.328985621440399,
            14.68397755353112,
            14.683977719971125,
            14.691578657212963,
            14.691578906743802,
            15.36374538834061,
            16.29013045591131,
            16.368212775677797,
            16.666265202871102,
            16.666265716123736,
            17.152650072151733,
            17.1779004793901,
            18.50587658766058,
            19.462117233053668,
            21.783507182453594,
            21.783507350746145,
            22.036970113620203,
            22.0369703354294,
            26.96091773513761,
            26.960918007086953,
            27.22276165751931,
            27.342490518150754,
            27.342490741612593,
            27.7514063201441,
            27.751406452245583,
            28.08423237667028,
            28.084232550718212,
            28.558542374109475,
            28.68728667345475,
            29.943020271699577,
            30.034814659591238,
            30.034814985080352,
            30.22080135956502,
            30.220801683050986,
            30.790029633851173,
            33.05825907094945
        ]
    },
    "born_effective_charge": {
        "avg_abs_trace": 2.6411609523809534,
        "tensors": [
            [
                [
                    3.06924,
                    -0.00013,
                    -0.00144
                ],
                [
                    -0.0,
                    3.06948,
                    -0.0
                ],
                [
                    -0.0,
                    -0.0,
                    2.15034
                ]
            ],
            [
                [
                    3.06924,
                    -0.00013,
                    0.00144
                ],
                [
                    -0.0,
                    3.06948,
                    -0.0
                ],
                [
                    -0.0,
                    -0.0,
                    2.15034
                ]
            ],
            [
                [
                    4.67918,
                    0.00012,
                    -0.00271
                ],
                [
                    -0.0,
                    4.67869,
                    -0.0
                ],
                [
                    -0.0,
                    -0.0,
                    5.79104
                ]
            ],
            [
                [
                    4.67918,
                    0.00012,
                    0.00271
                ],
                [
                    -0.0,
                    4.67869,
                    -0.0
                ],
                [
                    -0.0,
                    -0.0,
                    5.79104
                ]
            ],
            [
                [
                    3.88214,
                    -0.06996,
                    0.0
                ],
                [
                    -0.78416,
                    2.96539,
                    -0.0
                ],
                [
                    -4e-05,
                    1e-05,
                    3.82384
                ]
            ],
            [
                [
                    2.82533,
                    -0.169,
                    0.0
                ],
                [
                    0.54131,
                    4.02622,
                    -0.0
                ],
                [
                    -1e-05,
                    -4e-05,
                    3.82384
                ]
            ],
            [
                [
                    3.88177,
                    0.07208,
                    0.0
                ],
                [
                    0.78416,
                    2.96539,
                    -0.0
                ],
                [
                    4e-05,
                    1e-05,
                    3.82384
                ]
            ],
            [
                [
                    3.56897,
                    0.96988,
                    0.0
                ],
                [
                    0.25591,
                    3.28539,
                    -0.0
                ],
                [
                    3e-05,
                    3e-05,
                    3.82384
                ]
            ],
            [
                [
                    2.82798,
                    0.16883,
                    0.0
                ],
                [
                    -0.54131,
                    4.02622,
                    -0.0
                ],
                [
                    1e-05,
                    -4e-05,
                    3.82384
                ]
            ],
            [
                [
                    3.56963,
                    -0.97097,
                    0.0
                ],
                [
                    -0.25591,
                    3.28539,
                    -0.0
                ],
                [
                    -3e-05,
                    3e-05,
                    3.82384
                ]
            ],
            [
                [
                    -2.41626,
                    0.10276,
                    0.92005
                ],
                [
                    -0.04539,
                    -1.37036,
                    -0.39858
                ],
                [
                    1.09366,
                    -0.4674,
                    -2.60455
                ]
            ],
            [
                [
                    -1.65541,
                    0.39228,
                    -0.80308
                ],
                [
                    0.54013,
                    -2.12952,
                    0.596
                ],
                [
                    -0.95155,
                    0.71341,
                    -2.60456
                ]
            ],
            [
                [
                    -1.65532,
                    -0.39277,
                    -0.80309
                ],
                [
                    -0.54013,
                    -2.12952,
                    -0.596
                ],
                [
                    -0.95161,
                    -0.71344,
                    -2.60455
                ]
            ],
            [
                [
                    -1.60661,
                    0.51147,
                    0.11367
                ],
                [
                    0.36474,
                    -2.17849,
                    -0.99437
                ],
                [
                    0.14206,
                    -1.18077,
                    -2.60456
                ]
            ],
            [
                [
                    -1.65532,
                    -0.39277,
                    0.80309
                ],
                [
                    -0.54013,
                    -2.12952,
                    0.596
                ],
                [
                    0.95155,
                    0.71341,
                    -2.60456
                ]
            ],
            [
                [
                    -2.41626,
                    0.10276,
                    -0.92005
                ],
                [
                    -0.04539,
                    -1.37036,
                    0.39858
                ],
                [
                    -1.09361,
                    0.46736,
                    -2.60456
                ]
            ],
            [
                [
                    -2.416,
                    -0.10226,
                    -0.91927
                ],
                [
                    0.04539,
                    -1.37036,
                    -0.39858
                ],
                [
                    -1.09366,
                    -0.4674,
                    -2.60455
                ]
            ],
            [
                [
                    -1.60726,
                    -0.51113,
                    0.11274
                ],
                [
                    -0.36474,
                    -2.17849,
                    0.99437
                ],
                [
                    0.14205,
                    1.18084,
                    -2.60455
                ]
            ],
            [
                [
                    -2.13683,
                    0.74237,
                    0.0
                ],
                [
                    1.03306,
                    -2.3095,
                    -0.0
                ],
                [
                    -3e-05,
                    -3e-05,
                    -1.26185
                ]
            ],
            [
                [
                    -3.03602,
                    -0.51437,
                    0.0
                ],
                [
                    -0.22345,
                    -1.41075,
                    -0.0
                ],
                [
                    -1e-05,
                    4e-05,
                    -1.26185
                ]
            ],
            [
                [
                    -1.49766,
                    -0.66409,
                    0.0
                ],
                [
                    -0.37356,
                    -2.94817,
                    -0.0
                ],
                [
                    4e-05,
                    -1e-05,
                    -1.26185
                ]
            ],
            [
                [
                    -3.03496,
                    0.51378,
                    0.0
                ],
                [
                    0.22345,
                    -1.41075,
                    -0.0
                ],
                [
                    1e-05,
                    4e-05,
                    -1.26185
                ]
            ],
            [
                [
                    -2.416,
                    -0.10226,
                    0.91927
                ],
                [
                    0.04539,
                    -1.37036,
                    0.39858
                ],
                [
                    1.09361,
                    0.46736,
                    -2.60456
                ]
            ],
            [
                [
                    -1.49728,
                    0.66325,
                    0.0
                ],
                [
                    0.37356,
                    -2.94817,
                    -0.0
                ],
                [
                    -4e-05,
                    -1e-05,
                    -1.26185
                ]
            ],
            [
                [
                    -2.13617,
                    -0.74246,
                    0.0
                ],
                [
                    -1.03306,
                    -2.3095,
                    -0.0
                ],
                [
                    3e-05,
                    -3e-05,
                    -1.26185
                ]
            ],
            [
                [
                    -1.60726,
                    -0.51113,
                    -0.11274
                ],
                [
                    -0.36474,
                    -2.17849,
                    -0.99437
                ],
                [
                    -0.14206,
                    -1.18077,
                    -2.60456
                ]
            ],
            [
                [
                    -1.65541,
                    0.39228,
                    0.80308
                ],
                [
                    0.54013,
                    -2.12952,
                    -0.596
                ],
                [
                    0.95161,
                    -0.71344,
                    -2.60455
                ]
            ],
            [
                [
                    -1.60661,
                    0.51147,
                    -0.11367
                ],
                [
                    0.36474,
                    -2.17849,
                    0.99437
                ],
                [
                    -0.14205,
                    1.18084,
                    -2.60455
                ]
            ]
        ]
    },
    "band_gap": 3.4008000000000003,
    "is_direct": false,
    "formula": "BaTi(SiO3)3"
}