{
    "mp_id": "mp-6402",
    "nelements": 4,
    "nsites": 16,
    "elements": [
        "Ge",
        "Na",
        "O",
        "Zn"
    ],
    "structure": {
        "@module": "pymatgen.core.structure",
        "@class": "Structure",
        "charge": null,
        "lattice": {
            "matrix": [
                [
                    5.29654198,
                    0.0,
                    0.00018048
                ],
                [
                    0.0,
                    5.55505939,
                    0.0
                ],
                [
                    -5.30014019,
                    0.0,
                    7.0955783
                ]
            ],
            "a": 5.296541983074934,
            "b": 5.55505939,
            "c": 8.856563523460107,
            "alpha": 90.0,
            "beta": 126.75644791990067,
            "gamma": 90.0,
            "volume": 208.77571321535012
        },
        "sites": [
            {
                "species": [
                    {
                        "element": "Na",
                        "occu": 1
                    }
                ],
                "abc": [
                    0.49121622,
                    0.82356511,
                    0.99948143
                ],
                "xyz": [
                    -2.6956443658147564,
                    4.574953097581883,
                    7.091987400664355
                ],
                "label": "Na",
                "properties": {}
            },
            {
                "species": [
                    {
                        "element": "Na",
                        "occu": 1
                    }
                ],
                "abc": [
                    0.23442834,
                    0.67893817,
                    0.24419003
                ],
                "xyz": [
                    -0.052581847888592215,
                    3.7715418564879166,
                    1.7327117875711522
                ],
                "label": "Na",
                "properties": {}
            },
            {
                "species": [
                    {
                        "element": "Na",
                        "occu": 1
                    }
                ],
                "abc": [
                    0.23442834,
                    0.32106183,
                    0.74419003
                ],
                "xyz": [
                    -2.702651942888592,
                    1.7835175335120836,
                    5.280500937571151
                ],
                "label": "Na",
                "properties": {}
            },
            {
                "species": [
                    {
                        "element": "Na",
                        "occu": 1
                    }
                ],
                "abc": [
                    0.49121622,
                    0.17643489,
                    0.49948143
                ],
                "xyz": [
                    -0.04557427081475618,
                    0.9801062924181172,
                    3.5441982506643543
                ],
                "label": "Na",
                "properties": {}
            },
            {
                "species": [
                    {
                        "element": "Zn",
                        "occu": 1
                    }
                ],
                "abc": [
                    0.99656949,
                    0.81420016,
                    0.49440458
                ],
                "xyz": [
                    2.6579585551941194,
                    4.522930244147503,
                    3.508266270130169
                ],
                "label": "Zn",
                "properties": {}
            },
            {
                "species": [
                    {
                        "element": "Zn",
                        "occu": 1
                    }
                ],
                "abc": [
                    0.99656949,
                    0.18579984,
                    0.99440458
                ],
                "xyz": [
                    0.007888460194119595,
                    1.0321291458524977,
                    7.0560554201301695
                ],
                "label": "Zn",
                "properties": {}
            },
            {
                "species": [
                    {
                        "element": "Ge",
                        "occu": 1
                    }
                ],
                "abc": [
                    0.75297804,
                    0.31611762,
                    0.24713041
                ],
                "xyz": [
                    2.678353980665941,
                    1.7560521533254518,
                    1.7536690719427621
                ],
                "label": "Ge",
                "properties": {}
            },
            {
                "species": [
                    {
                        "element": "Ge",
                        "occu": 1
                    }
                ],
                "abc": [
                    0.75297804,
                    0.68388238,
                    0.74713041
                ],
                "xyz": [
                    0.02828388566594109,
                    3.7990072366745484,
                    5.301458221942762
                ],
                "label": "Ge",
                "properties": {}
            },
            {
                "species": [
                    {
                        "element": "O",
                        "occu": 1
                    }
                ],
                "abc": [
                    0.87277743,
                    0.85015276,
                    0.95413111
                ],
                "xyz": [
                    -0.4343263454487998,
                    4.722649072372416,
                    6.770269518341479
                ],
                "label": "O",
                "properties": {}
            },
            {
                "species": [
                    {
                        "element": "O",
                        "occu": 1
                    }
                ],
                "abc": [
                    0.6954654,
                    0.3726553,
                    0.77413779
                ],
                "xyz": [
                    -0.41947712663928804,
                    2.0701223234982673,
                    5.493080821529349
                ],
                "label": "O",
                "properties": {}
            },
            {
                "species": [
                    {
                        "element": "O",
                        "occu": 1
                    }
                ],
                "abc": [
                    0.06142233,
                    0.70626249,
                    0.71990087
                ],
                "xyz": [
                    -3.490249584548552,
                    3.923330076879281,
                    5.108124076825239
                ],
                "label": "O",
                "properties": {}
            },
            {
                "species": [
                    {
                        "element": "O",
                        "occu": 1
                    }
                ],
                "abc": [
                    0.39814675,
                    0.20550389,
                    0.03662578
                ],
                "xyz": [
                    1.9146792070074665,
                    1.1415863138260272,
                    0.2599529473140139
                ],
                "label": "O",
                "properties": {}
            },
            {
                "species": [
                    {
                        "element": "O",
                        "occu": 1
                    }
                ],
                "abc": [
                    0.6954654,
                    0.6273447,
                    0.27413779
                ],
                "xyz": [
                    2.230592968360712,
                    3.484937066501733,
                    1.945291671529349
                ],
                "label": "O",
                "properties": {}
            },
            {
                "species": [
                    {
                        "element": "O",
                        "occu": 1
                    }
                ],
                "abc": [
                    0.39814675,
                    0.79449611,
                    0.53662578
                ],
                "xyz": [
                    -0.7353908879925335,
                    4.413473076173973,
                    3.8077420973140144
                ],
                "label": "O",
                "properties": {}
            },
            {
                "species": [
                    {
                        "element": "O",
                        "occu": 1
                    }
                ],
                "abc": [
                    0.87277743,
                    0.14984724,
                    0.45413111
                ],
                "xyz": [
                    2.2157437495512,
                    0.8324103176275836,
                    3.222480368341479
                ],
                "label": "O",
                "properties": {}
            },
            {
                "species": [
                    {
                        "element": "O",
                        "occu": 1
                    }
                ],
                "abc": [
                    0.06142233,
                    0.29373751,
                    0.21990087
                ],
                "xyz": [
                    -0.8401794895485517,
                    1.631729313120719,
                    1.5603349268252393
                ],
                "label": "O",
                "properties": {}
            }
        ]
    },
    "spacegroup": {
        "source": "spglib",
        "symbol": "Pc",
        "number": 7,
        "point_group": "m",
        "crystal_system": "monoclinic",
        "hall": "P -2yc"
    },
    "dielectric": {
        "epsilon_ionic": [
            [
                3.56478981,
                -6.4e-07,
                -0.01739539
            ],
            [
                -6.4e-07,
                3.28723221,
                1e-08
            ],
            [
                -0.01739539,
                1e-08,
                2.42387007
            ]
        ],
        "epsilon_ionic_avg": 3.09196403,
        "epsilon_ionic_eig": [
            3.5650549726342375,
            2.423604907367238,
            3.2872322099985256
        ],
        "epsilon_electronic": [
            [
                3.0268878,
                0.0,
                -0.00160971
            ],
            [
                0.0,
                3.06392364,
                0.0
            ],
            [
                -0.00160661,
                0.0,
                2.95183842
            ]
        ],
        "epsilon_electronic_avg": 3.0142166200000005,
        "epsilon_electronic_eig": [
            3.0269222438528884,
            2.9518039761471115,
            3.06392364
        ]
    },
    "phonon": {
        "lowest_freq": -0.0662597428058645,
        "frequency": [
            -0.0662597428058645,
            -0.05644208521835756,
            -0.013662926161994425,
            3.017538854582324,
            3.082410389027377,
            3.2510134645920914,
            4.03252556230168,
            4.210262424931238,
            4.565688848086614,
            4.7019423643691685,
            4.794430982365703,
            5.342360288924362,
            5.3659214803747535,
            5.716467381993662,
            5.84789442838096,
            6.08202311655127,
            6.198295117794642,
            6.3477247372109105,
            6.766034010882435,
            7.067712233854796,
            7.160959877477743,
            7.52826705218328,
            7.583332691531877,
            8.01398195031822,
            8.230237858473481,
            8.489207996990505,
            8.932405278364579,
            8.935529652985055,
            9.131875733987023,
            9.721483366077447,
            10.054527924622796,
            10.379252510980692,
            11.509826765465293,
            11.965612365988259,
            12.795537348323778,
            12.836843655638027,
            13.202780571460048,
            13.508597048545969,
            13.769900800113495,
            14.846977264016635,
            20.677299764287714,
            20.997317391938765,
            21.006014553509548,
            21.344910093325737,
            21.3454243657971,
            22.227278310634723,
            22.471108064959953,
            22.88445482156805
        ]
    },
    "born_effective_charge": {
        "avg_abs_trace": 1.7417099999999999,
        "tensors": [
            [
                [
                    1.02528,
                    -0.00632,
                    -0.04704
                ],
                [
                    0.0078,
                    1.01439,
                    -0.04993
                ],
                [
                    0.02207,
                    0.03287,
                    0.98274
                ]
            ],
            [
                [
                    1.05892,
                    -0.04193,
                    0.01494
                ],
                [
                    0.00177,
                    1.00096,
                    -0.02744
                ],
                [
                    0.00304,
                    0.0036,
                    1.07933
                ]
            ],
            [
                [
                    1.05892,
                    0.04193,
                    0.01494
                ],
                [
                    -0.00177,
                    1.00096,
                    0.02744
                ],
                [
                    0.00304,
                    -0.0036,
                    1.07933
                ]
            ],
            [
                [
                    1.02528,
                    0.00632,
                    -0.04704
                ],
                [
                    -0.0078,
                    1.01439,
                    0.04993
                ],
                [
                    0.02207,
                    -0.03287,
                    0.98274
                ]
            ],
            [
                [
                    1.98638,
                    -0.09923,
                    0.242
                ],
                [
                    0.05142,
                    2.08492,
                    0.20933
                ],
                [
                    -0.24349,
                    -0.22234,
                    1.89935
                ]
            ],
            [
                [
                    1.98638,
                    0.09923,
                    0.242
                ],
                [
                    -0.05141,
                    2.08493,
                    -0.20933
                ],
                [
                    -0.24349,
                    0.22234,
                    1.89935
                ]
            ],
            [
                [
                    2.96334,
                    -0.1116,
                    -0.30428
                ],
                [
                    0.07568,
                    2.92636,
                    -0.3165
                ],
                [
                    0.31177,
                    0.26504,
                    2.87855
                ]
            ],
            [
                [
                    2.96334,
                    0.1116,
                    -0.30428
                ],
                [
                    -0.07568,
                    2.92636,
                    0.3165
                ],
                [
                    0.31177,
                    -0.26504,
                    2.87855
                ]
            ],
            [
                [
                    -1.34116,
                    -0.04509,
                    -0.14806
                ],
                [
                    -0.00703,
                    -2.0969,
                    -0.53865
                ],
                [
                    -0.15858,
                    -0.52691,
                    -1.82445
                ]
            ],
            [
                [
                    -1.33731,
                    0.09461,
                    0.06092
                ],
                [
                    0.14866,
                    -2.33123,
                    0.34945
                ],
                [
                    0.01162,
                    0.45364,
                    -1.57771
                ]
            ],
            [
                [
                    -2.33417,
                    0.13839,
                    -0.36491
                ],
                [
                    0.1256,
                    -1.26205,
                    0.03389
                ],
                [
                    -0.4058,
                    0.19878,
                    -1.58662
                ]
            ],
            [
                [
                    -2.02127,
                    0.19447,
                    0.54642
                ],
                [
                    0.13874,
                    -1.33645,
                    -0.13622
                ],
                [
                    0.45937,
                    -0.31512,
                    -1.8512
                ]
            ],
            [
                [
                    -1.33731,
                    -0.09461,
                    0.06092
                ],
                [
                    -0.14866,
                    -2.33123,
                    -0.34945
                ],
                [
                    0.01162,
                    -0.45364,
                    -1.57771
                ]
            ],
            [
                [
                    -2.02127,
                    -0.19447,
                    0.54642
                ],
                [
                    -0.13874,
                    -1.33645,
                    0.13622
                ],
                [
                    0.45937,
                    0.31512,
                    -1.8512
                ]
            ],
            [
                [
                    -1.34116,
                    0.04509,
                    -0.14806
                ],
                [
                    0.00703,
                    -2.0969,
                    0.53866
                ],
                [
                    -0.15858,
                    0.52691,
                    -1.82445
                ]
            ],
            [
                [
                    -2.33417,
                    -0.13839,
                    -0.36491
                ],
                [
                    -0.1256,
                    -1.26204,
                    -0.03389
                ],
                [
                    -0.4058,
                    -0.19878,
                    -1.58662
                ]
            ]
        ]
    },
    "band_gap": 2.8536,
    "is_direct": false,
    "formula": "Na2ZnGeO4"
}