{
    "mp_id": "mp-638261",
    "nelements": 3,
    "nsites": 32,
    "elements": [
        "Ge",
        "La",
        "O"
    ],
    "structure": {
        "@module": "pymatgen.core.structure",
        "@class": "Structure",
        "charge": null,
        "lattice": {
            "matrix": [
                [
                    9.56497598,
                    0.0,
                    0.00014336
                ],
                [
                    0.0,
                    7.40755643,
                    0.0
                ],
                [
                    -2.0457423,
                    0.0,
                    6.80418547
                ]
            ],
            "a": 9.56497598107434,
            "b": 7.40755643,
            "c": 7.1050687166394395,
            "alpha": 90.0,
            "beta": 106.73304034733994,
            "gamma": 90.0,
            "volume": 482.0998013915394
        },
        "sites": [
            {
                "species": [
                    {
                        "element": "La",
                        "occu": 1
                    }
                ],
                "abc": [
                    0.3744019,
                    0.6368366,
                    0.06652006
                ],
                "xyz": [
                    3.445062279825824,
                    4.717403051189337,
                    0.4526684999719122
                ],
                "label": "La",
                "properties": {}
            },
            {
                "species": [
                    {
                        "element": "La",
                        "occu": 1
                    }
                ],
                "abc": [
                    0.3744019,
                    0.8631634,
                    0.56652006
                ],
                "xyz": [
                    2.422191129825824,
                    6.393931593810662,
                    3.854761234971912
                ],
                "label": "La",
                "properties": {}
            },
            {
                "species": [
                    {
                        "element": "La",
                        "occu": 1
                    }
                ],
                "abc": [
                    0.98018467,
                    0.37191148,
                    0.76632886
                ],
                "xyz": [
                    7.807731459901447,
                    2.7549552750648165,
                    5.214384213727955
                ],
                "label": "La",
                "properties": {}
            },
            {
                "species": [
                    {
                        "element": "La",
                        "occu": 1
                    }
                ],
                "abc": [
                    0.6255981,
                    0.3631634,
                    0.93347994
                ],
                "xyz": [
                    4.074171400174176,
                    2.690153378810662,
                    6.351660330028087
                ],
                "label": "La",
                "properties": {}
            },
            {
                "species": [
                    {
                        "element": "La",
                        "occu": 1
                    }
                ],
                "abc": [
                    0.98018467,
                    0.12808852,
                    0.26632886
                ],
                "xyz": [
                    8.830602609901447,
                    0.9488229399351836,
                    1.8122914787279554
                ],
                "label": "La",
                "properties": {}
            },
            {
                "species": [
                    {
                        "element": "La",
                        "occu": 1
                    }
                ],
                "abc": [
                    0.01981533,
                    0.62808852,
                    0.23367114
                ],
                "xyz": [
                    -0.28849777990144865,
                    4.652601154935184,
                    1.5899446162720448
                ],
                "label": "La",
                "properties": {}
            },
            {
                "species": [
                    {
                        "element": "La",
                        "occu": 1
                    }
                ],
                "abc": [
                    0.6255981,
                    0.1368366,
                    0.43347994
                ],
                "xyz": [
                    5.0970425501741765,
                    1.013624836189338,
                    2.949567595028088
                ],
                "label": "La",
                "properties": {}
            },
            {
                "species": [
                    {
                        "element": "La",
                        "occu": 1
                    }
                ],
                "abc": [
                    0.01981533,
                    0.87191148,
                    0.73367114
                ],
                "xyz": [
                    -1.3113689299014488,
                    6.458733490064816,
                    4.992037351272045
                ],
                "label": "La",
                "properties": {}
            },
            {
                "species": [
                    {
                        "element": "Ge",
                        "occu": 1
                    }
                ],
                "abc": [
                    0.3007608,
                    0.4129321,
                    0.5307915
                ],
                "xyz": [
                    1.790907203695134,
                    3.058817832508403,
                    3.6116469289677933
                ],
                "label": "Ge",
                "properties": {}
            },
            {
                "species": [
                    {
                        "element": "Ge",
                        "occu": 1
                    }
                ],
                "abc": [
                    0.3007608,
                    0.0870679,
                    0.0307915
                ],
                "xyz": [
                    2.813778353695134,
                    0.644960382491597,
                    0.20955419396779298
                ],
                "label": "Ge",
                "properties": {}
            },
            {
                "species": [
                    {
                        "element": "Ge",
                        "occu": 1
                    }
                ],
                "abc": [
                    0.6992392,
                    0.9129321,
                    0.9692085
                ],
                "xyz": [
                    4.7054553263048655,
                    6.762596047508403,
                    6.5947746360322075
                ],
                "label": "Ge",
                "properties": {}
            },
            {
                "species": [
                    {
                        "element": "Ge",
                        "occu": 1
                    }
                ],
                "abc": [
                    0.6992392,
                    0.5870679,
                    0.4692085
                ],
                "xyz": [
                    5.728326476304865,
                    4.348738597491597,
                    3.192681901032207
                ],
                "label": "Ge",
                "properties": {}
            },
            {
                "species": [
                    {
                        "element": "O",
                        "occu": 1
                    }
                ],
                "abc": [
                    0.60659398,
                    0.78583366,
                    0.49148281
                ],
                "xyz": [
                    4.796609674172737,
                    5.821107181043433,
                    3.3442271558697434
                ],
                "label": "O",
                "properties": {}
            },
            {
                "species": [
                    {
                        "element": "O",
                        "occu": 1
                    }
                ],
                "abc": [
                    0.10912735,
                    0.13139856,
                    0.99253222
                ],
                "xyz": [
                    -0.9866646650558533,
                    0.9733422480207408,
                    6.75338895432774
                ],
                "label": "O",
                "properties": {}
            },
            {
                "species": [
                    {
                        "element": "O",
                        "occu": 1
                    }
                ],
                "abc": [
                    0.89087265,
                    0.86860144,
                    0.00746778
                ],
                "xyz": [
                    8.505898345055853,
                    6.434214181979258,
                    0.050939875672260604
                ],
                "label": "O",
                "properties": {}
            },
            {
                "species": [
                    {
                        "element": "O",
                        "occu": 1
                    }
                ],
                "abc": [
                    0.88897828,
                    0.11865972,
                    0.55697224
                ],
                "xyz": [
                    7.3636342236479635,
                    0.8789785718679995,
                    3.7898698665275736
                ],
                "label": "O",
                "properties": {}
            },
            {
                "species": [
                    {
                        "element": "O",
                        "occu": 1
                    }
                ],
                "abc": [
                    0.39340602,
                    0.21416634,
                    0.50851719
                ],
                "xyz": [
                    2.722624005827263,
                    1.5864492489565662,
                    3.4601016741302564
                ],
                "label": "O",
                "properties": {}
            },
            {
                "species": [
                    {
                        "element": "O",
                        "occu": 1
                    }
                ],
                "abc": [
                    0.10912735,
                    0.36860144,
                    0.49253222
                ],
                "xyz": [
                    0.0362064849441468,
                    2.7304359669792593,
                    3.35129621932774
                ],
                "label": "O",
                "properties": {}
            },
            {
                "species": [
                    {
                        "element": "O",
                        "occu": 1
                    }
                ],
                "abc": [
                    0.61256045,
                    0.05251032,
                    0.76437364
                ],
                "xyz": [
                    4.295414502195019,
                    0.3889731585573576,
                    5.201027831605123
                ],
                "label": "O",
                "properties": {}
            },
            {
                "species": [
                    {
                        "element": "O",
                        "occu": 1
                    }
                ],
                "abc": [
                    0.11102172,
                    0.88134028,
                    0.44302776
                ],
                "xyz": [
                    0.15559945635203765,
                    6.5285778581319995,
                    3.0144589634724266
                ],
                "label": "O",
                "properties": {}
            },
            {
                "species": [
                    {
                        "element": "O",
                        "occu": 1
                    }
                ],
                "abc": [
                    0.38743955,
                    0.55251032,
                    0.73562636
                ],
                "xyz": [
                    2.200948027804981,
                    4.092751373557357,
                    5.005393733394877
                ],
                "label": "O",
                "properties": {}
            },
            {
                "species": [
                    {
                        "element": "O",
                        "occu": 1
                    }
                ],
                "abc": [
                    0.28679093,
                    0.91464179,
                    0.84368544
                ],
                "xyz": [
                    1.0171853642297495,
                    6.77526067266121,
                    5.740633326446281
                ],
                "label": "O",
                "properties": {}
            },
            {
                "species": [
                    {
                        "element": "O",
                        "occu": 1
                    }
                ],
                "abc": [
                    0.39340602,
                    0.28583366,
                    0.00851719
                ],
                "xyz": [
                    3.7454951558272627,
                    2.117328966043434,
                    0.058008939130256496
                ],
                "label": "O",
                "properties": {}
            },
            {
                "species": [
                    {
                        "element": "O",
                        "occu": 1
                    }
                ],
                "abc": [
                    0.88897828,
                    0.38134028,
                    0.05697224
                ],
                "xyz": [
                    8.386505373647964,
                    2.824799643132,
                    0.38777713152757365
                ],
                "label": "O",
                "properties": {}
            },
            {
                "species": [
                    {
                        "element": "O",
                        "occu": 1
                    }
                ],
                "abc": [
                    0.61256045,
                    0.44748968,
                    0.26437364
                ],
                "xyz": [
                    5.318285652195019,
                    3.3148050564426423,
                    1.798935096605123
                ],
                "label": "O",
                "properties": {}
            },
            {
                "species": [
                    {
                        "element": "O",
                        "occu": 1
                    }
                ],
                "abc": [
                    0.60659398,
                    0.71416634,
                    0.99148281
                ],
                "xyz": [
                    3.773738524172737,
                    5.290227463956566,
                    6.746319890869744
                ],
                "label": "O",
                "properties": {}
            },
            {
                "species": [
                    {
                        "element": "O",
                        "occu": 1
                    }
                ],
                "abc": [
                    0.38743955,
                    0.94748968,
                    0.23562636
                ],
                "xyz": [
                    3.2238191778049807,
                    7.018583271442642,
                    1.6033009983948774
                ],
                "label": "O",
                "properties": {}
            },
            {
                "species": [
                    {
                        "element": "O",
                        "occu": 1
                    }
                ],
                "abc": [
                    0.11102172,
                    0.61865972,
                    0.94302776
                ],
                "xyz": [
                    -0.8672716936479623,
                    4.582756786868,
                    6.416551698472427
                ],
                "label": "O",
                "properties": {}
            },
            {
                "species": [
                    {
                        "element": "O",
                        "occu": 1
                    }
                ],
                "abc": [
                    0.71320907,
                    0.08535821,
                    0.15631456
                ],
                "xyz": [
                    6.50204831577025,
                    0.6322957573387903,
                    1.0636955035537183
                ],
                "label": "O",
                "properties": {}
            },
            {
                "species": [
                    {
                        "element": "O",
                        "occu": 1
                    }
                ],
                "abc": [
                    0.71320907,
                    0.41464179,
                    0.65631456
                ],
                "xyz": [
                    5.47917716577025,
                    3.0714824576612094,
                    4.465788238553719
                ],
                "label": "O",
                "properties": {}
            },
            {
                "species": [
                    {
                        "element": "O",
                        "occu": 1
                    }
                ],
                "abc": [
                    0.89087265,
                    0.63139856,
                    0.50746778
                ],
                "xyz": [
                    7.483027195055853,
                    4.677120463020741,
                    3.4530326106722606
                ],
                "label": "O",
                "properties": {}
            },
            {
                "species": [
                    {
                        "element": "O",
                        "occu": 1
                    }
                ],
                "abc": [
                    0.28679093,
                    0.58535821,
                    0.34368544
                ],
                "xyz": [
                    2.0400565142297493,
                    4.33607397233879,
                    2.3385405914462813
                ],
                "label": "O",
                "properties": {}
            }
        ]
    },
    "spacegroup": {
        "source": "spglib",
        "symbol": "P2_1/c",
        "number": 14,
        "point_group": "2/m",
        "crystal_system": "monoclinic",
        "hall": "-P 2ybc"
    },
    "dielectric": {
        "epsilon_ionic": [
            [
                12.10175028,
                0.0,
                1.30951592
            ],
            [
                0.0,
                12.36042401,
                0.0
            ],
            [
                1.30951592,
                0.0,
                13.98993105
            ]
        ],
        "epsilon_ionic_avg": 12.817368446666668,
        "epsilon_ionic_eig": [
            11.43148673856909,
            14.660194591430908,
            12.36042401
        ],
        "epsilon_electronic": [
            [
                4.13724682,
                0.0,
                0.05639364
            ],
            [
                0.0,
                4.20196402,
                0.0
            ],
            [
                0.05639097,
                0.0,
                4.1764382
            ]
        ],
        "epsilon_electronic_avg": 4.171883013333333,
        "epsilon_electronic_eig": [
            4.097142567554409,
            4.216542452445591,
            4.20196402
        ]
    },
    "phonon": {
        "lowest_freq": -0.1894330469560637,
        "frequency": [
            -0.1894330469560637,
            -0.1219574194508247,
            -0.05479853313074956,
            0.8162150971605298,
            1.47152763284218,
            2.5847506879605047,
            2.625728626337314,
            2.694231914052245,
            2.745497837671352,
            2.749418373555135,
            2.9240079887105956,
            2.980317641350561,
            3.1036716148312418,
            3.113437459676699,
            3.2585648703428274,
            3.3789408687283906,
            3.4063186481326184,
            3.7352322361718096,
            3.870471683096194,
            4.102216273760885,
            4.120861568448463,
            4.201686359902973,
            4.331257950163241,
            4.4426448009110615,
            4.524338116668334,
            4.529675527841276,
            4.5914204557901375,
            4.926088886792044,
            4.967859441486854,
            5.266837146924039,
            5.28418491041378,
            5.348627075979725,
            5.4490885420973765,
            5.744007788985109,
            5.798653876642909,
            5.913457575678106,
            5.978280323124935,
            6.03635479227869,
            6.094455340591739,
            6.141890037845429,
            6.192190521891505,
            6.601152930060447,
            6.723639017651711,
            6.766788549519536,
            7.0902286092624545,
            7.267847060235563,
            7.374547078777522,
            7.4798417024543395,
            7.797586718218034,
            7.9861018764444935,
            8.091833404555167,
            8.500364115429946,
            8.537805461354184,
            8.748803007068544,
            8.778942687850748,
            8.84240035367499,
            8.993586936296055,
            9.027796774376075,
            9.39113157814886,
            9.646221236913677,
            9.735907005443032,
            9.983370351694214,
            10.031005075751638,
            10.121205754020833,
            10.296422864111168,
            10.521014075189617,
            10.737638241116853,
            10.74000493806352,
            11.01879733755223,
            11.10395002016151,
            11.494385385865908,
            11.521579730739187,
            11.911525815236233,
            12.33521280221931,
            12.493006099668127,
            12.49486455965478,
            13.49338768904033,
            13.657043224171389,
            14.281451590091907,
            14.588818727885478,
            19.314088977700273,
            19.396457099921843,
            19.474000067729296,
            19.54679337337302,
            20.78472006059315,
            20.84079388853405,
            20.892805106820393,
            21.84515968562426,
            22.12858307339969,
            22.16823551157997,
            22.705118932961497,
            22.896881015157973,
            23.64581263645614,
            23.68929206458287,
            24.00461013163958,
            24.219884634542368
        ]
    },
    "born_effective_charge": {
        "avg_abs_trace": 2.9013125,
        "tensors": [
            [
                [
                    4.6167,
                    -0.15191,
                    -0.21783
                ],
                [
                    -0.0033,
                    3.94618,
                    0.07337
                ],
                [
                    -0.28684,
                    -0.06218,
                    4.22259
                ]
            ],
            [
                [
                    4.6167,
                    0.15191,
                    -0.21783
                ],
                [
                    0.00326,
                    3.94645,
                    -0.07358
                ],
                [
                    -0.28684,
                    0.06218,
                    4.22259
                ]
            ],
            [
                [
                    3.55393,
                    -0.05231,
                    0.03621
                ],
                [
                    0.18749,
                    4.16807,
                    0.34813
                ],
                [
                    -0.00026,
                    0.39122,
                    4.29998
                ]
            ],
            [
                [
                    4.61674,
                    -0.15199,
                    -0.21788
                ],
                [
                    -0.00326,
                    3.94645,
                    0.07358
                ],
                [
                    -0.28671,
                    -0.06193,
                    4.22274
                ]
            ],
            [
                [
                    3.55393,
                    0.05231,
                    0.03621
                ],
                [
                    -0.18738,
                    4.16816,
                    -0.34812
                ],
                [
                    -0.00026,
                    -0.39122,
                    4.29998
                ]
            ],
            [
                [
                    3.55387,
                    -0.05223,
                    0.03614
                ],
                [
                    0.18738,
                    4.16816,
                    0.34812
                ],
                [
                    -0.00028,
                    0.39122,
                    4.30002
                ]
            ],
            [
                [
                    4.61674,
                    0.15199,
                    -0.21788
                ],
                [
                    0.0033,
                    3.94618,
                    -0.07337
                ],
                [
                    -0.28671,
                    0.06193,
                    4.22274
                ]
            ],
            [
                [
                    3.55387,
                    0.05223,
                    0.03614
                ],
                [
                    -0.18749,
                    4.16807,
                    -0.34813
                ],
                [
                    -0.00028,
                    -0.39122,
                    4.30002
                ]
            ],
            [
                [
                    3.29238,
                    -0.2958,
                    0.28958
                ],
                [
                    -0.09394,
                    3.61427,
                    -0.05289
                ],
                [
                    0.38739,
                    -0.11736,
                    3.10142
                ]
            ],
            [
                [
                    3.29238,
                    0.2958,
                    0.28958
                ],
                [
                    0.09388,
                    3.61423,
                    0.05276
                ],
                [
                    0.38739,
                    0.11736,
                    3.10142
                ]
            ],
            [
                [
                    3.29231,
                    0.29587,
                    0.28955
                ],
                [
                    0.09394,
                    3.61427,
                    0.05289
                ],
                [
                    0.3875,
                    0.11722,
                    3.10144
                ]
            ],
            [
                [
                    3.29231,
                    -0.29587,
                    0.28955
                ],
                [
                    -0.09388,
                    3.61423,
                    -0.05276
                ],
                [
                    0.3875,
                    -0.11722,
                    3.10144
                ]
            ],
            [
                [
                    -2.38969,
                    0.60887,
                    0.10535
                ],
                [
                    0.6577,
                    -2.63098,
                    -0.11044
                ],
                [
                    0.01573,
                    -0.09067,
                    -1.40657
                ]
            ],
            [
                [
                    -2.63883,
                    0.32794,
                    -0.11883
                ],
                [
                    0.40439,
                    -2.01122,
                    0.10755
                ],
                [
                    -0.02515,
                    0.0468,
                    -2.07092
                ]
            ],
            [
                [
                    -2.63872,
                    0.32796,
                    -0.11885
                ],
                [
                    0.40442,
                    -2.01119,
                    0.1076
                ],
                [
                    -0.02514,
                    0.04673,
                    -2.07095
                ]
            ],
            [
                [
                    -2.65735,
                    0.27804,
                    -0.23759
                ],
                [
                    0.27672,
                    -2.6671,
                    0.01473
                ],
                [
                    -0.2169,
                    -0.00691,
                    -2.68574
                ]
            ],
            [
                [
                    -2.38967,
                    0.60872,
                    0.10534
                ],
                [
                    0.6577,
                    -2.63133,
                    -0.11017
                ],
                [
                    0.01569,
                    -0.0906,
                    -1.40665
                ]
            ],
            [
                [
                    -2.63883,
                    -0.32794,
                    -0.11883
                ],
                [
                    -0.40442,
                    -2.01119,
                    -0.1076
                ],
                [
                    -0.02515,
                    -0.0468,
                    -2.07092
                ]
            ],
            [
                [
                    -1.55247,
                    -0.19834,
                    -0.08503
                ],
                [
                    -0.16339,
                    -2.35404,
                    0.14483
                ],
                [
                    -0.1064,
                    0.2401,
                    -2.82572
                ]
            ],
            [
                [
                    -2.65741,
                    0.27804,
                    -0.2376
                ],
                [
                    0.2767,
                    -2.66706,
                    0.01448
                ],
                [
                    -0.21689,
                    -0.00678,
                    -2.68586
                ]
            ],
            [
                [
                    -1.55252,
                    0.1982,
                    -0.08513
                ],
                [
                    0.16339,
                    -2.35404,
                    -0.14483
                ],
                [
                    -0.10643,
                    -0.23985,
                    -2.82563
                ]
            ],
            [
                [
                    -2.22467,
                    0.16533,
                    0.2283
                ],
                [
                    0.18225,
                    -2.06505,
                    -0.37954
                ],
                [
                    0.23242,
                    -0.49099,
                    -2.63505
                ]
            ],
            [
                [
                    -2.38967,
                    -0.60872,
                    0.10534
                ],
                [
                    -0.6577,
                    -2.63098,
                    0.11044
                ],
                [
                    0.01569,
                    0.0906,
                    -1.40665
                ]
            ],
            [
                [
                    -2.65735,
                    -0.27804,
                    -0.23759
                ],
                [
                    -0.2767,
                    -2.66706,
                    -0.01448
                ],
                [
                    -0.2169,
                    0.00691,
                    -2.68574
                ]
            ],
            [
                [
                    -1.55247,
                    0.19834,
                    -0.08503
                ],
                [
                    0.16345,
                    -2.35424,
                    -0.14463
                ],
                [
                    -0.1064,
                    -0.2401,
                    -2.82572
                ]
            ],
            [
                [
                    -2.38969,
                    -0.60887,
                    0.10535
                ],
                [
                    -0.6577,
                    -2.63133,
                    0.11017
                ],
                [
                    0.01573,
                    0.09067,
                    -1.40657
                ]
            ],
            [
                [
                    -1.55252,
                    -0.1982,
                    -0.08513
                ],
                [
                    -0.16345,
                    -2.35424,
                    0.14463
                ],
                [
                    -0.10643,
                    0.23985,
                    -2.82563
                ]
            ],
            [
                [
                    -2.65741,
                    -0.27804,
                    -0.2376
                ],
                [
                    -0.27672,
                    -2.6671,
                    -0.01473
                ],
                [
                    -0.21689,
                    0.00678,
                    -2.68586
                ]
            ],
            [
                [
                    -2.2246,
                    0.16526,
                    0.22827
                ],
                [
                    0.18217,
                    -2.06518,
                    -0.37981
                ],
                [
                    0.23225,
                    -0.49085,
                    -2.63511
                ]
            ],
            [
                [
                    -2.2246,
                    -0.16526,
                    0.22827
                ],
                [
                    -0.18225,
                    -2.06505,
                    0.37954
                ],
                [
                    0.23225,
                    0.49085,
                    -2.63511
                ]
            ],
            [
                [
                    -2.63872,
                    -0.32796,
                    -0.11885
                ],
                [
                    -0.40439,
                    -2.01122,
                    -0.10755
                ],
                [
                    -0.02514,
                    -0.04673,
                    -2.07095
                ]
            ],
            [
                [
                    -2.22467,
                    -0.16533,
                    0.2283
                ],
                [
                    -0.18217,
                    -2.06518,
                    0.37981
                ],
                [
                    0.23242,
                    0.49099,
                    -2.63505
                ]
            ]
        ]
    },
    "band_gap": 3.8667,
    "is_direct": false,
    "formula": "La2GeO5"
}