{
    "mp_id": "mp-6138",
    "nelements": 4,
    "nsites": 18,
    "elements": [
        "Na",
        "O",
        "Si",
        "Ti"
    ],
    "structure": {
        "@module": "pymatgen.core.structure",
        "@class": "Structure",
        "charge": null,
        "lattice": {
            "matrix": [
                [
                    6.51071423,
                    0.0,
                    0.0
                ],
                [
                    0.0,
                    6.51071423,
                    0.0
                ],
                [
                    0.0,
                    0.0,
                    5.03612813
                ]
            ],
            "a": 6.51071423,
            "b": 6.51071423,
            "c": 5.03612813,
            "alpha": 90.0,
            "beta": 90.0,
            "gamma": 90.0,
            "volume": 213.47844866966693
        },
        "sites": [
            {
                "species": [
                    {
                        "element": "Na",
                        "occu": 1
                    }
                ],
                "abc": [
                    0.25,
                    0.25,
                    0.5
                ],
                "xyz": [
                    1.6276785575,
                    1.6276785575,
                    2.518064065
                ],
                "label": "Na",
                "properties": {}
            },
            {
                "species": [
                    {
                        "element": "Na",
                        "occu": 1
                    }
                ],
                "abc": [
                    0.25,
                    0.75,
                    0.5
                ],
                "xyz": [
                    1.6276785575,
                    4.8830356725,
                    2.518064065
                ],
                "label": "Na",
                "properties": {}
            },
            {
                "species": [
                    {
                        "element": "Na",
                        "occu": 1
                    }
                ],
                "abc": [
                    0.75,
                    0.25,
                    0.5
                ],
                "xyz": [
                    4.8830356725,
                    1.6276785575,
                    2.518064065
                ],
                "label": "Na",
                "properties": {}
            },
            {
                "species": [
                    {
                        "element": "Na",
                        "occu": 1
                    }
                ],
                "abc": [
                    0.75,
                    0.75,
                    0.5
                ],
                "xyz": [
                    4.8830356725,
                    4.8830356725,
                    2.518064065
                ],
                "label": "Na",
                "properties": {}
            },
            {
                "species": [
                    {
                        "element": "Ti",
                        "occu": 1
                    }
                ],
                "abc": [
                    0.5,
                    0.0,
                    0.06771656
                ],
                "xyz": [
                    3.255357115,
                    0.0,
                    0.3410292726828328
                ],
                "label": "Ti",
                "properties": {}
            },
            {
                "species": [
                    {
                        "element": "Ti",
                        "occu": 1
                    }
                ],
                "abc": [
                    0.0,
                    0.5,
                    0.93228344
                ],
                "xyz": [
                    0.0,
                    3.255357115,
                    4.695098857317167
                ],
                "label": "Ti",
                "properties": {}
            },
            {
                "species": [
                    {
                        "element": "Si",
                        "occu": 1
                    }
                ],
                "abc": [
                    0.0,
                    0.0,
                    0.0
                ],
                "xyz": [
                    0.0,
                    0.0,
                    0.0
                ],
                "label": "Si",
                "properties": {}
            },
            {
                "species": [
                    {
                        "element": "Si",
                        "occu": 1
                    }
                ],
                "abc": [
                    0.5,
                    0.5,
                    0.0
                ],
                "xyz": [
                    3.255357115,
                    3.255357115,
                    0.0
                ],
                "label": "Si",
                "properties": {}
            },
            {
                "species": [
                    {
                        "element": "O",
                        "occu": 1
                    }
                ],
                "abc": [
                    0.5,
                    0.0,
                    0.71722946
                ],
                "xyz": [
                    3.255357115,
                    0.0,
                    3.61205945917071
                ],
                "label": "O",
                "properties": {}
            },
            {
                "species": [
                    {
                        "element": "O",
                        "occu": 1
                    }
                ],
                "abc": [
                    0.0,
                    0.5,
                    0.28277054
                ],
                "xyz": [
                    0.0,
                    3.255357115,
                    1.4240686708292902
                ],
                "label": "O",
                "properties": {}
            },
            {
                "species": [
                    {
                        "element": "O",
                        "occu": 1
                    }
                ],
                "abc": [
                    0.5,
                    0.29395773,
                    0.18795536
                ],
                "xyz": [
                    3.255357115,
                    1.9138747757294976,
                    0.9465672756802767
                ],
                "label": "O",
                "properties": {}
            },
            {
                "species": [
                    {
                        "element": "O",
                        "occu": 1
                    }
                ],
                "abc": [
                    0.5,
                    0.70604227,
                    0.18795536
                ],
                "xyz": [
                    3.255357115,
                    4.596839454270501,
                    0.9465672756802767
                ],
                "label": "O",
                "properties": {}
            },
            {
                "species": [
                    {
                        "element": "O",
                        "occu": 1
                    }
                ],
                "abc": [
                    0.79395773,
                    0.0,
                    0.18795536
                ],
                "xyz": [
                    5.169231890729498,
                    0.0,
                    0.9465672756802767
                ],
                "label": "O",
                "properties": {}
            },
            {
                "species": [
                    {
                        "element": "O",
                        "occu": 1
                    }
                ],
                "abc": [
                    0.20604227,
                    0.0,
                    0.18795536
                ],
                "xyz": [
                    1.341482339270502,
                    0.0,
                    0.9465672756802767
                ],
                "label": "O",
                "properties": {}
            },
            {
                "species": [
                    {
                        "element": "O",
                        "occu": 1
                    }
                ],
                "abc": [
                    0.29395773,
                    0.5,
                    0.81204464
                ],
                "xyz": [
                    1.9138747757294976,
                    3.255357115,
                    4.089560854319723
                ],
                "label": "O",
                "properties": {}
            },
            {
                "species": [
                    {
                        "element": "O",
                        "occu": 1
                    }
                ],
                "abc": [
                    0.0,
                    0.79395773,
                    0.81204464
                ],
                "xyz": [
                    0.0,
                    5.169231890729498,
                    4.089560854319723
                ],
                "label": "O",
                "properties": {}
            },
            {
                "species": [
                    {
                        "element": "O",
                        "occu": 1
                    }
                ],
                "abc": [
                    0.70604227,
                    0.5,
                    0.81204464
                ],
                "xyz": [
                    4.596839454270501,
                    3.255357115,
                    4.089560854319723
                ],
                "label": "O",
                "properties": {}
            },
            {
                "species": [
                    {
                        "element": "O",
                        "occu": 1
                    }
                ],
                "abc": [
                    0.0,
                    0.20604227,
                    0.81204464
                ],
                "xyz": [
                    0.0,
                    1.341482339270502,
                    4.089560854319723
                ],
                "label": "O",
                "properties": {}
            }
        ]
    },
    "spacegroup": {
        "source": "spglib",
        "symbol": "P4/nmm",
        "number": 129,
        "point_group": "4/mmm",
        "crystal_system": "tetragonal",
        "hall": "P 4ab 2ab -1ab"
    },
    "dielectric": {
        "epsilon_ionic": [
            [
                6.92149256,
                -2.4e-07,
                -2e-08
            ],
            [
                -2.4e-07,
                6.92149452,
                -2e-08
            ],
            [
                -2e-08,
                -2e-08,
                3.08356581
            ]
        ],
        "epsilon_ionic_avg": 5.6421842966666675,
        "epsilon_ionic_eig": [
            6.921492531040141,
            6.9214945489598625,
            3.0835658099999996
        ],
        "epsilon_electronic": [
            [
                3.39679699,
                0.0,
                -0.0
            ],
            [
                0.0,
                3.39679699,
                0.0
            ],
            [
                0.0,
                -0.0,
                2.90571136
            ]
        ],
        "epsilon_electronic_avg": 3.23310178,
        "epsilon_electronic_eig": [
            3.39679699,
            3.39679699,
            2.90571136
        ]
    },
    "phonon": {
        "lowest_freq": -0.10547903113727337,
        "frequency": [
            -0.10547903113727337,
            -0.10547903113727337,
            -0.02874260908208324,
            2.660077196443527,
            3.415084910178924,
            3.415084910178924,
            4.489720897554919,
            4.489720897554919,
            4.957865153816326,
            5.0094283604213965,
            5.6854595758022,
            5.708833742411649,
            6.017379483535396,
            6.017379483535396,
            6.4227997092976326,
            7.009577467330457,
            7.009577467330457,
            7.242113104293808,
            7.242113104293808,
            7.386945488869018,
            7.5016560997098765,
            7.93581363470637,
            7.93581363470637,
            8.29425429144117,
            8.29425429144117,
            8.923696533933393,
            9.69098492444152,
            9.69098492444152,
            9.815484462484475,
            10.54122263607118,
            11.319626430729603,
            11.83419500006672,
            11.83419500006672,
            12.509976705946166,
            12.509976705946166,
            13.55934226101711,
            13.66683511377666,
            15.298279891620284,
            15.3457116186104,
            15.3457116186104,
            16.09033698751411,
            16.09033698751411,
            16.508937900355125,
            17.98183938933059,
            24.509141456812923,
            24.61377119837362,
            25.346723746968426,
            25.447639627941033,
            26.28244746349916,
            26.28244746349916,
            26.291455243220224,
            26.36427799542834,
            26.36427799542834,
            29.03947756240868
        ]
    },
    "born_effective_charge": {
        "avg_abs_trace": 2.080987037037037,
        "tensors": [
            [
                [
                    0.95629,
                    -0.0872,
                    -0.0293
                ],
                [
                    -0.0872,
                    0.95629,
                    0.0293
                ],
                [
                    0.10844,
                    -0.10844,
                    1.31381
                ]
            ],
            [
                [
                    0.95629,
                    0.0872,
                    -0.0293
                ],
                [
                    0.0872,
                    0.95629,
                    -0.0293
                ],
                [
                    0.10844,
                    0.10844,
                    1.31381
                ]
            ],
            [
                [
                    0.95629,
                    0.0872,
                    0.0293
                ],
                [
                    0.0872,
                    0.95629,
                    0.0293
                ],
                [
                    -0.10844,
                    -0.10844,
                    1.31381
                ]
            ],
            [
                [
                    0.95629,
                    -0.0872,
                    0.0293
                ],
                [
                    -0.0872,
                    0.95629,
                    -0.0293
                ],
                [
                    -0.10844,
                    0.10844,
                    1.31381
                ]
            ],
            [
                [
                    4.40491,
                    0.0,
                    0.0003
                ],
                [
                    0.0,
                    4.40492,
                    0.0003
                ],
                [
                    0.0,
                    0.0,
                    2.91747
                ]
            ],
            [
                [
                    4.40491,
                    0.0,
                    -0.0003
                ],
                [
                    0.0,
                    4.40492,
                    -0.0003
                ],
                [
                    0.0,
                    0.0,
                    2.91743
                ]
            ],
            [
                [
                    4.10123,
                    0.0,
                    0.00026
                ],
                [
                    0.0,
                    4.10123,
                    -0.00026
                ],
                [
                    0.0,
                    0.0,
                    1.7108
                ]
            ],
            [
                [
                    4.10123,
                    0.0,
                    -0.00026
                ],
                [
                    0.0,
                    4.10123,
                    0.00026
                ],
                [
                    0.0,
                    0.0,
                    1.7108
                ]
            ],
            [
                [
                    -0.99819,
                    0.0,
                    -2e-05
                ],
                [
                    0.0,
                    -0.99819,
                    -2e-05
                ],
                [
                    0.0,
                    0.0,
                    -2.52917
                ]
            ],
            [
                [
                    -0.99819,
                    0.0,
                    2e-05
                ],
                [
                    0.0,
                    -0.99819,
                    2e-05
                ],
                [
                    0.0,
                    0.0,
                    -2.52883
                ]
            ],
            [
                [
                    -1.32534,
                    -0.00037,
                    0.00015
                ],
                [
                    0.0,
                    -3.38452,
                    0.05689
                ],
                [
                    0.0,
                    0.01019,
                    -1.18157
                ]
            ],
            [
                [
                    -1.32534,
                    0.00037,
                    0.00015
                ],
                [
                    0.0,
                    -3.38533,
                    -0.05807
                ],
                [
                    0.0,
                    -0.01019,
                    -1.18157
                ]
            ],
            [
                [
                    -3.38453,
                    0.0,
                    0.05689
                ],
                [
                    -0.00036,
                    -1.32534,
                    0.00015
                ],
                [
                    0.01019,
                    0.0,
                    -1.18157
                ]
            ],
            [
                [
                    -3.38533,
                    0.0,
                    -0.05807
                ],
                [
                    0.00036,
                    -1.32534,
                    0.00015
                ],
                [
                    -0.01019,
                    0.0,
                    -1.18157
                ]
            ],
            [
                [
                    -3.38453,
                    0.0,
                    -0.05689
                ],
                [
                    -0.00036,
                    -1.32534,
                    -0.00015
                ],
                [
                    -0.00986,
                    0.0,
                    -1.18187
                ]
            ],
            [
                [
                    -1.32534,
                    -0.00037,
                    -0.00015
                ],
                [
                    0.0,
                    -3.38452,
                    -0.05689
                ],
                [
                    0.0,
                    -0.00986,
                    -1.18187
                ]
            ],
            [
                [
                    -3.38533,
                    0.0,
                    0.05807
                ],
                [
                    0.00036,
                    -1.32534,
                    -0.00015
                ],
                [
                    0.00986,
                    0.0,
                    -1.18187
                ]
            ],
            [
                [
                    -1.32534,
                    0.00037,
                    -0.00015
                ],
                [
                    0.0,
                    -3.38533,
                    0.05807
                ],
                [
                    0.0,
                    0.00986,
                    -1.18187
                ]
            ]
        ]
    },
    "band_gap": 3.3721000000000005,
    "is_direct": false,
    "formula": "Na2TiSiO5"
}