{
    "mp_id": "mp-6798",
    "nelements": 4,
    "nsites": 10,
    "elements": [
        "Ba",
        "Na",
        "O",
        "Re"
    ],
    "structure": {
        "@module": "pymatgen.core.structure",
        "@class": "Structure",
        "charge": null,
        "lattice": {
            "matrix": [
                [
                    0.0,
                    4.13611876,
                    4.13611876
                ],
                [
                    4.13611876,
                    0.0,
                    4.13611876
                ],
                [
                    4.13611876,
                    4.13611876,
                    0.0
                ]
            ],
            "a": 5.8493552459777876,
            "b": 5.8493552459777876,
            "c": 5.8493552459777876,
            "alpha": 60.00000000000001,
            "beta": 60.00000000000001,
            "gamma": 60.00000000000001,
            "volume": 141.51712466679638
        },
        "sites": [
            {
                "species": [
                    {
                        "element": "Ba",
                        "occu": 1
                    }
                ],
                "abc": [
                    0.75,
                    0.75,
                    0.75
                ],
                "xyz": [
                    6.20417814,
                    6.20417814,
                    6.20417814
                ],
                "label": "Ba",
                "properties": {}
            },
            {
                "species": [
                    {
                        "element": "Ba",
                        "occu": 1
                    }
                ],
                "abc": [
                    0.25,
                    0.25,
                    0.25
                ],
                "xyz": [
                    2.06805938,
                    2.06805938,
                    2.06805938
                ],
                "label": "Ba",
                "properties": {}
            },
            {
                "species": [
                    {
                        "element": "Na",
                        "occu": 1
                    }
                ],
                "abc": [
                    0.0,
                    0.0,
                    0.0
                ],
                "xyz": [
                    0.0,
                    0.0,
                    0.0
                ],
                "label": "Na",
                "properties": {}
            },
            {
                "species": [
                    {
                        "element": "Re",
                        "occu": 1
                    }
                ],
                "abc": [
                    0.5,
                    0.5,
                    0.5
                ],
                "xyz": [
                    4.13611876,
                    4.13611876,
                    4.13611876
                ],
                "label": "Re",
                "properties": {}
            },
            {
                "species": [
                    {
                        "element": "O",
                        "occu": 1
                    }
                ],
                "abc": [
                    0.72854806,
                    0.72854806,
                    0.27145194
                ],
                "xyz": [
                    4.13611876,
                    4.13611876,
                    6.026722597055211
                ],
                "label": "O",
                "properties": {}
            },
            {
                "species": [
                    {
                        "element": "O",
                        "occu": 1
                    }
                ],
                "abc": [
                    0.72854806,
                    0.27145194,
                    0.72854806
                ],
                "xyz": [
                    4.13611876,
                    6.026722597055211,
                    4.13611876
                ],
                "label": "O",
                "properties": {}
            },
            {
                "species": [
                    {
                        "element": "O",
                        "occu": 1
                    }
                ],
                "abc": [
                    0.27145194,
                    0.72854806,
                    0.27145194
                ],
                "xyz": [
                    4.13611876,
                    2.2455149229447886,
                    4.13611876
                ],
                "label": "O",
                "properties": {}
            },
            {
                "species": [
                    {
                        "element": "O",
                        "occu": 1
                    }
                ],
                "abc": [
                    0.72854806,
                    0.27145194,
                    0.27145194
                ],
                "xyz": [
                    2.2455149229447886,
                    4.13611876,
                    4.13611876
                ],
                "label": "O",
                "properties": {}
            },
            {
                "species": [
                    {
                        "element": "O",
                        "occu": 1
                    }
                ],
                "abc": [
                    0.27145194,
                    0.27145194,
                    0.72854806
                ],
                "xyz": [
                    4.13611876,
                    4.13611876,
                    2.2455149229447886
                ],
                "label": "O",
                "properties": {}
            },
            {
                "species": [
                    {
                        "element": "O",
                        "occu": 1
                    }
                ],
                "abc": [
                    0.27145194,
                    0.72854806,
                    0.72854806
                ],
                "xyz": [
                    6.026722597055211,
                    4.13611876,
                    4.13611876
                ],
                "label": "O",
                "properties": {}
            }
        ]
    },
    "spacegroup": {
        "source": "spglib",
        "symbol": "Fm-3m",
        "number": 225,
        "point_group": "m-3m",
        "crystal_system": "cubic",
        "hall": "-F 4 2 3"
    },
    "dielectric": {
        "epsilon_ionic": [
            [
                17.44676713,
                1e-08,
                1e-08
            ],
            [
                1e-08,
                17.44611995,
                -0.0
            ],
            [
                1e-08,
                -0.0,
                17.4449818
            ]
        ],
        "epsilon_ionic_avg": 17.44595629333334,
        "epsilon_ionic_eig": [
            17.44676713000021,
            17.444981799999947,
            17.44611994999985
        ],
        "epsilon_electronic": [
            [
                4.43558016,
                -0.0,
                -0.0
            ],
            [
                -0.0,
                4.43558016,
                -0.0
            ],
            [
                0.0,
                0.0,
                4.43558016
            ]
        ],
        "epsilon_electronic_avg": 4.43558016,
        "epsilon_electronic_eig": [
            4.43558016,
            4.43558016,
            4.43558016
        ]
    },
    "phonon": {
        "lowest_freq": -0.037601160739679534,
        "frequency": [
            -0.037601160739679534,
            -0.037601160739679534,
            -0.037601160739679534,
            0.6873085064507731,
            0.6873085064507731,
            0.6873085064507731,
            2.8723853630351814,
            2.8723853630351814,
            2.8723853630351814,
            2.8809051725138426,
            2.8809051725138426,
            2.8809051725138426,
            5.669406247047414,
            5.669406247047414,
            5.669406247047414,
            7.987985203737409,
            7.987985203737409,
            7.987985203737409,
            9.19571190295316,
            9.19571190295316,
            9.19571190295316,
            12.70939324962782,
            12.70939324962782,
            12.70939324962782,
            18.506157754523763,
            18.506157754523763,
            19.89276521328194,
            19.89276521328194,
            19.89276521328194,
            24.449250725397206
        ]
    },
    "born_effective_charge": {
        "avg_abs_trace": 2.693626666666667,
        "tensors": [
            [
                [
                    2.78816,
                    -0.0,
                    0.0
                ],
                [
                    0.0,
                    2.7881,
                    0.0
                ],
                [
                    -0.0,
                    -0.0,
                    2.78796
                ]
            ],
            [
                [
                    2.78816,
                    -0.0,
                    0.0
                ],
                [
                    0.0,
                    2.7881,
                    0.0
                ],
                [
                    -0.0,
                    -0.0,
                    2.78796
                ]
            ],
            [
                [
                    1.4137,
                    -0.0,
                    0.0
                ],
                [
                    0.0,
                    1.41366,
                    0.0
                ],
                [
                    -0.0,
                    -0.0,
                    1.41352
                ]
            ],
            [
                [
                    6.47825,
                    -0.0,
                    0.0
                ],
                [
                    0.0,
                    6.47829,
                    0.0
                ],
                [
                    -0.0,
                    -0.0,
                    6.47854
                ]
            ],
            [
                [
                    -1.74319,
                    -0.0,
                    0.00039
                ],
                [
                    0.0,
                    -1.74316,
                    -1e-05
                ],
                [
                    -0.0,
                    -0.0,
                    -3.2473
                ]
            ],
            [
                [
                    -1.74319,
                    0.00039,
                    0.0
                ],
                [
                    0.0,
                    -3.2474,
                    0.0
                ],
                [
                    -0.0,
                    -4e-05,
                    -1.74317
                ]
            ],
            [
                [
                    -1.74319,
                    -0.00039,
                    0.0
                ],
                [
                    0.0,
                    -3.24808,
                    0.0
                ],
                [
                    -0.0,
                    4e-05,
                    -1.74317
                ]
            ],
            [
                [
                    -3.24745,
                    -0.0,
                    0.0
                ],
                [
                    1e-05,
                    -1.74316,
                    0.0
                ],
                [
                    4e-05,
                    -0.0,
                    -1.74317
                ]
            ],
            [
                [
                    -1.74319,
                    -0.0,
                    -0.00039
                ],
                [
                    0.0,
                    -1.74316,
                    1e-05
                ],
                [
                    -0.0,
                    -0.0,
                    -3.248
                ]
            ],
            [
                [
                    -3.24809,
                    -0.0,
                    0.0
                ],
                [
                    -1e-05,
                    -1.74316,
                    0.0
                ],
                [
                    -4e-05,
                    -0.0,
                    -1.74317
                ]
            ]
        ]
    },
    "band_gap": 2.0049,
    "is_direct": false,
    "formula": "Ba2NaReO6"
}