{
    "mp_id": "mp-733",
    "nelements": 2,
    "nsites": 9,
    "elements": [
        "Ge",
        "O"
    ],
    "structure": {
        "@module": "pymatgen.core.structure",
        "@class": "Structure",
        "charge": null,
        "lattice": {
            "matrix": [
                [
                    4.99510999,
                    0.0,
                    0.0
                ],
                [
                    -2.4975555,
                    4.32589261,
                    0.0
                ],
                [
                    0.0,
                    0.0,
                    5.74406684
                ]
            ],
            "a": 4.99510999,
            "b": 4.995110644303374,
            "c": 5.74406684,
            "alpha": 90.0,
            "beta": 90.0,
            "gamma": 120.00000235557341,
            "volume": 124.119573446348
        },
        "sites": [
            {
                "species": [
                    {
                        "element": "Ge",
                        "occu": 1
                    }
                ],
                "abc": [
                    0.55157069,
                    0.55157069,
                    0.0
                ],
                "xyz": [
                    1.3775778533618988,
                    2.386035571763601,
                    0.0
                ],
                "label": "Ge",
                "properties": {}
            },
            {
                "species": [
                    {
                        "element": "Ge",
                        "occu": 1
                    }
                ],
                "abc": [
                    0.0,
                    0.44842931,
                    0.666667
                ],
                "xyz": [
                    -1.119977089551705,
                    1.9398570382363993,
                    3.82937980802228
                ],
                "label": "Ge",
                "properties": {}
            },
            {
                "species": [
                    {
                        "element": "Ge",
                        "occu": 1
                    }
                ],
                "abc": [
                    0.44842931,
                    0.0,
                    0.333333
                ],
                "xyz": [
                    2.2399537261898073,
                    0.0,
                    1.91468703197772
                ],
                "label": "Ge",
                "properties": {}
            },
            {
                "species": [
                    {
                        "element": "O",
                        "occu": 1
                    }
                ],
                "abc": [
                    0.30978983,
                    0.39079861,
                    0.75106546
                ],
                "xyz": [
                    0.5713930568355469,
                    1.6905528189972723,
                    4.314170203455347
                ],
                "label": "O",
                "properties": {}
            },
            {
                "species": [
                    {
                        "element": "O",
                        "occu": 1
                    }
                ],
                "abc": [
                    0.60920139,
                    0.91899122,
                    0.08439846
                ],
                "xyz": [
                    0.7477963731481765,
                    3.9754573272528844,
                    0.4847903954330664
                ],
                "label": "O",
                "properties": {}
            },
            {
                "species": [
                    {
                        "element": "O",
                        "occu": 1
                    }
                ],
                "abc": [
                    0.08100878,
                    0.69021017,
                    0.41773146
                ],
                "xyz": [
                    -1.3191904399837227,
                    2.985775073749844,
                    2.3994774274107864
                ],
                "label": "O",
                "properties": {}
            },
            {
                "species": [
                    {
                        "element": "O",
                        "occu": 1
                    }
                ],
                "abc": [
                    0.39079861,
                    0.30978983,
                    0.24893454
                ],
                "xyz": [
                    1.178364747128549,
                    1.3401175362501563,
                    1.4298966365446537
                ],
                "label": "O",
                "properties": {}
            },
            {
                "species": [
                    {
                        "element": "O",
                        "occu": 1
                    }
                ],
                "abc": [
                    0.69021017,
                    0.08100878,
                    0.58226854
                ],
                "xyz": [
                    3.245351791329308,
                    0.35043528274711583,
                    3.3445894125892135
                ],
                "label": "O",
                "properties": {}
            },
            {
                "species": [
                    {
                        "element": "O",
                        "occu": 1
                    }
                ],
                "abc": [
                    0.91899122,
                    0.60920139,
                    0.91560154
                ],
                "xyz": [
                    3.0689479415421435,
                    2.635339791002728,
                    5.259276444566934
                ],
                "label": "O",
                "properties": {}
            }
        ]
    },
    "spacegroup": {
        "source": "spglib",
        "symbol": "P3_121",
        "number": 152,
        "point_group": "32",
        "crystal_system": "trigonal",
        "hall": "P 31 2\""
    },
    "dielectric": {
        "epsilon_ionic": [
            [
                3.26891653,
                -0.0002847,
                1e-08
            ],
            [
                -0.0002847,
                3.26830665,
                0.0002732
            ],
            [
                1e-08,
                0.0002732,
                3.19769739
            ]
        ],
        "epsilon_ionic_avg": 3.2449735233333343,
        "epsilon_ionic_eig": [
            3.269028914893233,
            3.268195322168514,
            3.1976963329382553
        ],
        "epsilon_electronic": [
            [
                3.23218888,
                0.0,
                0.0
            ],
            [
                0.0,
                3.23218864,
                0.0
            ],
            [
                0.0,
                0.0,
                3.37429491
            ]
        ],
        "epsilon_electronic_avg": 3.279557476666666,
        "epsilon_electronic_eig": [
            3.23218888,
            3.23218864,
            3.37429491
        ]
    },
    "phonon": {
        "lowest_freq": -0.08217241416540225,
        "frequency": [
            -0.08217241416540225,
            -0.08217241133987824,
            -0.03877480600298499,
            3.500020042920361,
            3.500020056886003,
            4.55677280983427,
            5.733360317144508,
            5.733360338458374,
            6.43280870902792,
            6.7448689268396205,
            6.744868944957106,
            7.034581176910022,
            8.809273166761784,
            8.809273208377045,
            9.264398032529746,
            13.046760134341262,
            15.33764781504989,
            15.33764783895187,
            15.747703608644121,
            17.150716935744345,
            17.150716935744345,
            24.093049225521384,
            24.09304947912163,
            24.718254924035385,
            24.819479589267257,
            27.151950732859667,
            27.151951047901658
        ]
    },
    "born_effective_charge": {
        "avg_abs_trace": 2.3218833333333335,
        "tensors": [
            [
                [
                    3.56452,
                    -0.28692,
                    0.71472
                ],
                [
                    -0.2873,
                    3.23287,
                    -0.41262
                ],
                [
                    -0.5294,
                    0.30567,
                    3.65104
                ]
            ],
            [
                [
                    3.56452,
                    0.28692,
                    -0.71472
                ],
                [
                    0.28635,
                    3.2329,
                    -0.41285
                ],
                [
                    0.52941,
                    0.30564,
                    3.65104
                ]
            ],
            [
                [
                    3.06762,
                    0.0,
                    0.0
                ],
                [
                    -0.00025,
                    3.72987,
                    0.82575
                ],
                [
                    -1e-05,
                    -0.61131,
                    3.65104
                ]
            ],
            [
                [
                    -2.32858,
                    -0.14107,
                    -0.8156
                ],
                [
                    -0.04427,
                    -1.07008,
                    -0.08345
                ],
                [
                    -0.79307,
                    -0.24071,
                    -1.82556
                ]
            ],
            [
                [
                    -1.46523,
                    0.54304,
                    0.4801
                ],
                [
                    0.63913,
                    -1.93312,
                    -0.66493
                ],
                [
                    0.605,
                    -0.56646,
                    -1.82556
                ]
            ],
            [
                [
                    -1.30452,
                    -0.54679,
                    0.33561
                ],
                [
                    -0.44981,
                    -2.09438,
                    0.74798
                ],
                [
                    0.18807,
                    0.80717,
                    -1.82556
                ]
            ],
            [
                [
                    -1.30452,
                    0.54679,
                    -0.33561
                ],
                [
                    0.45052,
                    -2.09451,
                    0.74805
                ],
                [
                    -0.18857,
                    0.80701,
                    -1.82548
                ]
            ],
            [
                [
                    -1.46523,
                    -0.54304,
                    -0.4801
                ],
                [
                    -0.63956,
                    -1.93362,
                    -0.66448
                ],
                [
                    -0.6046,
                    -0.56682,
                    -1.82548
                ]
            ],
            [
                [
                    -2.32858,
                    0.14107,
                    0.8156
                ],
                [
                    0.04521,
                    -1.06994,
                    -0.08344
                ],
                [
                    0.79318,
                    -0.24019,
                    -1.82548
                ]
            ]
        ]
    },
    "band_gap": 3.0518,
    "is_direct": false,
    "formula": "GeO2"
}