{
    "mp_id": "mp-7020",
    "nelements": 3,
    "nsites": 16,
    "elements": [
        "Li",
        "O",
        "Y"
    ],
    "structure": {
        "@module": "pymatgen.core.structure",
        "@class": "Structure",
        "charge": null,
        "lattice": {
            "matrix": [
                [
                    6.14466254,
                    0.0,
                    0.00052616
                ],
                [
                    0.0,
                    6.10561535,
                    0.0
                ],
                [
                    -3.05496956,
                    0.0,
                    5.43541772
                ]
            ],
            "a": 6.144662562527221,
            "b": 6.10561535,
            "c": 6.2351106488511165,
            "alpha": 90.0,
            "beta": 119.33320180265173,
            "gamma": 90.0,
            "volume": 203.93008686301678
        },
        "sites": [
            {
                "species": [
                    {
                        "element": "Li",
                        "occu": 1
                    }
                ],
                "abc": [
                    0.29147087,
                    0.65540775,
                    0.06501198
                ],
                "xyz": [
                    1.5923805164548808,
                    4.001667618908962,
                    0.3535206284172448
                ],
                "label": "Li",
                "properties": {}
            },
            {
                "species": [
                    {
                        "element": "Li",
                        "occu": 1
                    }
                ],
                "abc": [
                    0.70852913,
                    0.15540775,
                    0.43498802
                ],
                "xyz": [
                    3.0247972435451187,
                    0.9488599439089626,
                    2.364714391582755
                ],
                "label": "Li",
                "properties": {}
            },
            {
                "species": [
                    {
                        "element": "Li",
                        "occu": 1
                    }
                ],
                "abc": [
                    0.70852913,
                    0.34459225,
                    0.93498802
                ],
                "xyz": [
                    1.4973124635451183,
                    2.1039477310910373,
                    5.082423251582755
                ],
                "label": "Li",
                "properties": {}
            },
            {
                "species": [
                    {
                        "element": "Li",
                        "occu": 1
                    }
                ],
                "abc": [
                    0.29147087,
                    0.84459225,
                    0.56501198
                ],
                "xyz": [
                    0.064895736454881,
                    5.156755406091038,
                    3.0712294884172446
                ],
                "label": "Li",
                "properties": {}
            },
            {
                "species": [
                    {
                        "element": "Y",
                        "occu": 1
                    }
                ],
                "abc": [
                    0.23337506,
                    0.1307842,
                    0.9781237
                ],
                "xyz": [
                    -1.5541271404623198,
                    0.7985180190574699,
                    5.316633683953534
                ],
                "label": "Y",
                "properties": {}
            },
            {
                "species": [
                    {
                        "element": "Y",
                        "occu": 1
                    }
                ],
                "abc": [
                    0.23337506,
                    0.3692158,
                    0.4781237
                ],
                "xyz": [
                    -0.026642360462319603,
                    2.25428965594253,
                    2.5989248239535336
                ],
                "label": "Y",
                "properties": {}
            },
            {
                "species": [
                    {
                        "element": "Y",
                        "occu": 1
                    }
                ],
                "abc": [
                    0.76662494,
                    0.8692158,
                    0.0218763
                ],
                "xyz": [
                    4.643820120462319,
                    5.30709733094253,
                    0.11931019604646641
                ],
                "label": "Y",
                "properties": {}
            },
            {
                "species": [
                    {
                        "element": "Y",
                        "occu": 1
                    }
                ],
                "abc": [
                    0.76662494,
                    0.6307842,
                    0.5218763
                ],
                "xyz": [
                    3.1163353404623195,
                    3.85132569405747,
                    2.8370190560464663
                ],
                "label": "Y",
                "properties": {}
            },
            {
                "species": [
                    {
                        "element": "O",
                        "occu": 1
                    }
                ],
                "abc": [
                    0.45359308,
                    0.39149676,
                    0.26402625
                ],
                "xyz": [
                    1.9805842502882727,
                    2.390328627331266,
                    1.435331620330123
                ],
                "label": "O",
                "properties": {}
            },
            {
                "species": [
                    {
                        "element": "O",
                        "occu": 1
                    }
                ],
                "abc": [
                    0.98833038,
                    0.17241385,
                    0.15382676
                ],
                "xyz": [
                    5.603020593816539,
                    1.0526926491125976,
                    0.836632717026928
                ],
                "label": "O",
                "properties": {}
            },
            {
                "species": [
                    {
                        "element": "O",
                        "occu": 1
                    }
                ],
                "abc": [
                    0.54640692,
                    0.89149676,
                    0.23597375
                ],
                "xyz": [
                    2.6365935097117266,
                    5.443136302331266,
                    1.282903399669877
                ],
                "label": "O",
                "properties": {}
            },
            {
                "species": [
                    {
                        "element": "O",
                        "occu": 1
                    }
                ],
                "abc": [
                    0.54640692,
                    0.60850324,
                    0.73597375
                ],
                "xyz": [
                    1.109108729711727,
                    3.715286722668734,
                    4.000612259669878
                ],
                "label": "O",
                "properties": {}
            },
            {
                "species": [
                    {
                        "element": "O",
                        "occu": 1
                    }
                ],
                "abc": [
                    0.01166962,
                    0.82758615,
                    0.84617324
                ],
                "xyz": [
                    -2.5133276138165397,
                    5.052922700887403,
                    4.5993111629730725
                ],
                "label": "O",
                "properties": {}
            },
            {
                "species": [
                    {
                        "element": "O",
                        "occu": 1
                    }
                ],
                "abc": [
                    0.01166962,
                    0.67241385,
                    0.34617324
                ],
                "xyz": [
                    -0.9858428338165396,
                    4.105500324112597,
                    1.8816023029730722
                ],
                "label": "O",
                "properties": {}
            },
            {
                "species": [
                    {
                        "element": "O",
                        "occu": 1
                    }
                ],
                "abc": [
                    0.98833038,
                    0.32758615,
                    0.65382676
                ],
                "xyz": [
                    4.07553581381654,
                    2.0001150258874025,
                    3.5543415770269275
                ],
                "label": "O",
                "properties": {}
            },
            {
                "species": [
                    {
                        "element": "O",
                        "occu": 1
                    }
                ],
                "abc": [
                    0.45359308,
                    0.10850324,
                    0.76402625
                ],
                "xyz": [
                    0.4530994702882727,
                    0.662479047668734,
                    4.153040480330123
                ],
                "label": "O",
                "properties": {}
            }
        ]
    },
    "spacegroup": {
        "source": "spglib",
        "symbol": "P2_1/c",
        "number": 14,
        "point_group": "2/m",
        "crystal_system": "monoclinic",
        "hall": "-P 2ybc"
    },
    "dielectric": {
        "epsilon_ionic": [
            [
                11.39155685,
                -0.0,
                -3.00864984
            ],
            [
                -0.0,
                7.63785495,
                0.0
            ],
            [
                -3.00864984,
                0.0,
                9.66743963
            ]
        ],
        "epsilon_ionic_avg": 9.565617143333334,
        "epsilon_ionic_eig": [
            13.659213707387917,
            7.3997827726120855,
            7.63785495
        ],
        "epsilon_electronic": [
            [
                3.77204055,
                0.0,
                -0.04755373
            ],
            [
                0.0,
                3.69082684,
                0.0
            ],
            [
                -0.04755166,
                0.0,
                3.75872706
            ]
        ],
        "epsilon_electronic_avg": 3.740531483333333,
        "epsilon_electronic_eig": [
            3.8134001673641653,
            3.7173674426358345,
            3.69082684
        ]
    },
    "phonon": {
        "lowest_freq": -0.03787776643032236,
        "frequency": [
            -0.03787776643032236,
            -0.03657611283436473,
            -0.011666318585883486,
            3.364660236079902,
            3.425094465971584,
            4.115050810415476,
            4.118067694103339,
            4.227558538535703,
            5.0468043348151665,
            5.501748792967221,
            5.517816938403292,
            6.072955282512371,
            6.123716294368699,
            6.625830869526566,
            6.757944668224893,
            7.543039005779192,
            7.777458986735621,
            7.809625692001407,
            8.295251927409437,
            8.533404265773836,
            8.758075199618979,
            9.281384383578885,
            9.285772465506236,
            9.927059875541888,
            10.109908626882964,
            10.612837067884245,
            10.81051346238091,
            11.13543009606336,
            11.430712114416284,
            11.48359699121773,
            11.575512551556216,
            12.228297233180765,
            12.271171591916383,
            12.577516344177765,
            12.891994176694391,
            13.108478486364625,
            13.306801993768815,
            13.534494102750287,
            13.746753577832937,
            13.984214336968506,
            14.625729206687684,
            15.244020539372528,
            16.21879159381224,
            16.326548284966716,
            16.688456597494547,
            16.77418810449922,
            18.50903131491534,
            18.80215886194248
        ]
    },
    "born_effective_charge": {
        "avg_abs_trace": 2.31401875,
        "tensors": [
            [
                [
                    1.01129,
                    0.01577,
                    0.03901
                ],
                [
                    0.00685,
                    1.03398,
                    -0.07512
                ],
                [
                    0.03907,
                    -0.06202,
                    1.00113
                ]
            ],
            [
                [
                    1.01128,
                    -0.01577,
                    0.039
                ],
                [
                    -0.00685,
                    1.03398,
                    0.07512
                ],
                [
                    0.03908,
                    0.06202,
                    1.00114
                ]
            ],
            [
                [
                    1.01128,
                    0.01577,
                    0.039
                ],
                [
                    0.00685,
                    1.03396,
                    -0.07506
                ],
                [
                    0.03908,
                    -0.06202,
                    1.00114
                ]
            ],
            [
                [
                    1.01129,
                    -0.01577,
                    0.03901
                ],
                [
                    -0.00685,
                    1.03396,
                    0.07506
                ],
                [
                    0.03907,
                    0.06202,
                    1.00113
                ]
            ],
            [
                [
                    3.58433,
                    0.0576,
                    0.07014
                ],
                [
                    -0.02047,
                    3.61034,
                    -0.17706
                ],
                [
                    0.04574,
                    0.11451,
                    3.64306
                ]
            ],
            [
                [
                    3.58433,
                    -0.0576,
                    0.07014
                ],
                [
                    0.02016,
                    3.61045,
                    0.17699
                ],
                [
                    0.04574,
                    -0.11451,
                    3.64306
                ]
            ],
            [
                [
                    3.58424,
                    0.05763,
                    0.07025
                ],
                [
                    -0.02016,
                    3.61045,
                    -0.17699
                ],
                [
                    0.04575,
                    0.11465,
                    3.64303
                ]
            ],
            [
                [
                    3.58424,
                    -0.05763,
                    0.07025
                ],
                [
                    0.02047,
                    3.61034,
                    0.17706
                ],
                [
                    0.04575,
                    -0.11465,
                    3.64303
                ]
            ],
            [
                [
                    -2.26049,
                    -0.3542,
                    -0.0791
                ],
                [
                    -0.36084,
                    -2.25782,
                    -0.71975
                ],
                [
                    -0.07055,
                    -0.64913,
                    -2.33783
                ]
            ],
            [
                [
                    -2.33506,
                    -0.40308,
                    -0.03006
                ],
                [
                    -0.40584,
                    -2.38649,
                    -0.73621
                ],
                [
                    -0.01427,
                    -0.83295,
                    -2.30638
                ]
            ],
            [
                [
                    -2.26044,
                    0.35416,
                    -0.07917
                ],
                [
                    0.36084,
                    -2.25782,
                    0.71975
                ],
                [
                    -0.07061,
                    0.6492,
                    -2.33782
                ]
            ],
            [
                [
                    -2.26044,
                    -0.35416,
                    -0.07917
                ],
                [
                    -0.36114,
                    -2.25782,
                    -0.71972
                ],
                [
                    -0.07061,
                    -0.6492,
                    -2.33782
                ]
            ],
            [
                [
                    -2.33515,
                    -0.40302,
                    -0.03006
                ],
                [
                    -0.40573,
                    -2.38659,
                    -0.7364
                ],
                [
                    -0.0142,
                    -0.83305,
                    -2.30633
                ]
            ],
            [
                [
                    -2.33515,
                    0.40302,
                    -0.03006
                ],
                [
                    0.40584,
                    -2.38649,
                    0.73621
                ],
                [
                    -0.0142,
                    0.83305,
                    -2.30633
                ]
            ],
            [
                [
                    -2.33506,
                    0.40308,
                    -0.03006
                ],
                [
                    0.40573,
                    -2.38659,
                    0.7364
                ],
                [
                    -0.01427,
                    0.83295,
                    -2.30638
                ]
            ],
            [
                [
                    -2.26049,
                    0.3542,
                    -0.0791
                ],
                [
                    0.36114,
                    -2.25782,
                    0.71972
                ],
                [
                    -0.07055,
                    0.64913,
                    -2.33783
                ]
            ]
        ]
    },
    "band_gap": 4.2189000000000005,
    "is_direct": false,
    "formula": "LiYO2"
}