{
    "mp_id": "mp-772261",
    "nelements": 3,
    "nsites": 12,
    "elements": [
        "As",
        "La",
        "O"
    ],
    "structure": {
        "@module": "pymatgen.core.structure",
        "@class": "Structure",
        "charge": null,
        "lattice": {
            "matrix": [
                [
                    -3.69052771,
                    3.69052771,
                    3.27475684
                ],
                [
                    3.69052771,
                    -3.69052771,
                    3.27475684
                ],
                [
                    3.69052771,
                    3.69052771,
                    -3.27475684
                ]
            ],
            "a": 6.161495104086546,
            "b": 6.161495104086546,
            "c": 6.161495104086546,
            "alpha": 106.40820468437714,
            "beta": 106.40820468437714,
            "gamma": 115.7879885118864,
            "volume": 178.4086842437186
        },
        "sites": [
            {
                "species": [
                    {
                        "element": "La",
                        "occu": 1
                    }
                ],
                "abc": [
                    0.0,
                    0.0,
                    0.0
                ],
                "xyz": [
                    0.0,
                    0.0,
                    0.0
                ],
                "label": "La",
                "properties": {}
            },
            {
                "species": [
                    {
                        "element": "La",
                        "occu": 1
                    }
                ],
                "abc": [
                    0.75,
                    0.25,
                    0.5
                ],
                "xyz": [
                    -2.220446049250313e-16,
                    3.6905277100000005,
                    1.63737842
                ],
                "label": "La",
                "properties": {}
            },
            {
                "species": [
                    {
                        "element": "As",
                        "occu": 1
                    }
                ],
                "abc": [
                    0.5,
                    0.5,
                    0.0
                ],
                "xyz": [
                    0.0,
                    0.0,
                    3.27475684
                ],
                "label": "As",
                "properties": {}
            },
            {
                "species": [
                    {
                        "element": "As",
                        "occu": 1
                    }
                ],
                "abc": [
                    0.25,
                    0.75,
                    0.5
                ],
                "xyz": [
                    3.6905277100000005,
                    -2.220446049250313e-16,
                    1.63737842
                ],
                "label": "As",
                "properties": {}
            },
            {
                "species": [
                    {
                        "element": "O",
                        "occu": 1
                    }
                ],
                "abc": [
                    0.51180831,
                    0.33309851,
                    0.17870979
                ],
                "xyz": [
                    -3.690527716759817e-08,
                    1.3190669009918392,
                    2.1816332807801855
                ],
                "label": "O",
                "properties": {}
            },
            {
                "species": [
                    {
                        "element": "O",
                        "occu": 1
                    }
                ],
                "abc": [
                    0.66690149,
                    0.84561128,
                    0.17870979
                ],
                "xyz": [
                    1.3190668640865617,
                    1.1102230246251565e-16,
                    4.367880431967382
                ],
                "label": "O",
                "properties": {}
            },
            {
                "species": [
                    {
                        "element": "O",
                        "occu": 1
                    }
                ],
                "abc": [
                    0.08309851,
                    0.40438872,
                    0.32129021
                ],
                "xyz": [
                    2.3714608459134383,
                    0.0,
                    0.5442548280326165
                ],
                "label": "O",
                "properties": {}
            },
            {
                "species": [
                    {
                        "element": "O",
                        "occu": 1
                    }
                ],
                "abc": [
                    0.66690149,
                    0.48819169,
                    0.82129021
                ],
                "xyz": [
                    2.3714608090081613,
                    3.690527746905277,
                    1.0931235592198152
                ],
                "label": "O",
                "properties": {}
            },
            {
                "species": [
                    {
                        "element": "O",
                        "occu": 1
                    }
                ],
                "abc": [
                    0.59561128,
                    0.91690149,
                    0.67870979
                ],
                "xyz": [
                    3.6905277099999996,
                    1.3190668640865617,
                    2.7305020119673826
                ],
                "label": "O",
                "properties": {}
            },
            {
                "species": [
                    {
                        "element": "O",
                        "occu": 1
                    }
                ],
                "abc": [
                    0.23819169,
                    0.91690149,
                    0.32129021
                ],
                "xyz": [
                    3.6905277469052766,
                    -1.3190669009918385,
                    2.7305019792198144
                ],
                "label": "O",
                "properties": {}
            },
            {
                "species": [
                    {
                        "element": "O",
                        "occu": 1
                    }
                ],
                "abc": [
                    0.15438872,
                    0.33309851,
                    0.82129021
                ],
                "xyz": [
                    3.69052771,
                    2.3714608459134383,
                    -1.093123591967383
                ],
                "label": "O",
                "properties": {}
            },
            {
                "species": [
                    {
                        "element": "O",
                        "occu": 1
                    }
                ],
                "abc": [
                    0.08309851,
                    0.76180831,
                    0.67870979
                ],
                "xyz": [
                    5.009594610991838,
                    -3.690527750066508e-08,
                    0.5442548607801858
                ],
                "label": "O",
                "properties": {}
            }
        ]
    },
    "spacegroup": {
        "source": "spglib",
        "symbol": "I4_1/amd",
        "number": 141,
        "point_group": "4/mmm",
        "crystal_system": "tetragonal",
        "hall": "I 4bw 2bw -1bw"
    },
    "dielectric": {
        "epsilon_ionic": [
            [
                7.124124,
                0.0,
                0.0
            ],
            [
                0.0,
                7.12694236,
                -0.0
            ],
            [
                0.0,
                -0.0,
                7.63323644
            ]
        ],
        "epsilon_ionic_avg": 7.2947676,
        "epsilon_ionic_eig": [
            7.124124,
            7.12694236,
            7.63323644
        ],
        "epsilon_electronic": [
            [
                3.52419342,
                0.0,
                0.0
            ],
            [
                0.0,
                3.52419342,
                -0.0
            ],
            [
                0.0,
                0.0,
                3.95872292
            ]
        ],
        "epsilon_electronic_avg": 3.669036586666667,
        "epsilon_electronic_eig": [
            3.52419342,
            3.52419342,
            3.95872292
        ]
    },
    "phonon": {
        "lowest_freq": -0.06998623096637685,
        "frequency": [
            -0.06998623096637685,
            -0.06998623096637685,
            -0.02685524087575229,
            2.016792342880792,
            2.7213247671522174,
            2.7213247671522174,
            3.7020346156471597,
            4.509268894476799,
            4.509268894476799,
            4.733850119679428,
            4.8010508038246655,
            4.8010508038246655,
            6.2185321907022235,
            6.374471711254267,
            6.380680530990934,
            6.380680530990934,
            6.705192755356439,
            7.606939487026663,
            7.606939487026663,
            8.923043256976033,
            9.494699911377188,
            9.494699911377188,
            10.840421148189769,
            11.658954584445581,
            11.658954584445581,
            11.95347836799905,
            13.080959859855007,
            13.228642159756921,
            22.50185067665718,
            22.50185067665718,
            23.02429909154038,
            23.02429909154038,
            23.783472479882693,
            24.127414331139644,
            24.76311523252361,
            24.97707914457124
        ]
    },
    "born_effective_charge": {
        "avg_abs_trace": 2.6868522222222224,
        "tensors": [
            [
                [
                    4.2487,
                    -0.0,
                    0.00013
                ],
                [
                    -0.0,
                    4.24975,
                    -5e-05
                ],
                [
                    0.0,
                    0.0,
                    4.54444
                ]
            ],
            [
                [
                    4.2487,
                    -0.0,
                    -0.00013
                ],
                [
                    -0.0,
                    4.24975,
                    5e-05
                ],
                [
                    0.0,
                    0.0,
                    4.54444
                ]
            ],
            [
                [
                    3.34609,
                    -0.0,
                    -2e-05
                ],
                [
                    -0.0,
                    3.34571,
                    -3e-05
                ],
                [
                    0.0,
                    0.0,
                    4.44698
                ]
            ],
            [
                [
                    3.34609,
                    -0.0,
                    2e-05
                ],
                [
                    -0.0,
                    3.34571,
                    3e-05
                ],
                [
                    0.0,
                    0.0,
                    4.44698
                ]
            ],
            [
                [
                    -1.00693,
                    5e-05,
                    1e-05
                ],
                [
                    -0.0,
                    -2.79047,
                    0.55484
                ],
                [
                    0.0,
                    0.49328,
                    -2.24787
                ]
            ],
            [
                [
                    -2.79053,
                    -0.0,
                    -0.55468
                ],
                [
                    0.0,
                    -1.00728,
                    1e-05
                ],
                [
                    -0.49332,
                    0.0,
                    -2.24784
                ]
            ],
            [
                [
                    -2.7904,
                    -0.0,
                    -0.55469
                ],
                [
                    -0.0,
                    -1.00728,
                    -1e-05
                ],
                [
                    -0.49328,
                    0.0,
                    -2.24787
                ]
            ],
            [
                [
                    -2.7904,
                    -0.0,
                    0.55469
                ],
                [
                    -0.0,
                    -1.00728,
                    1e-05
                ],
                [
                    0.49332,
                    0.0,
                    -2.24784
                ]
            ],
            [
                [
                    -1.00693,
                    5e-05,
                    -1e-05
                ],
                [
                    0.0,
                    -2.79047,
                    -0.55484
                ],
                [
                    0.0,
                    -0.49332,
                    -2.24784
                ]
            ],
            [
                [
                    -1.00693,
                    -5e-05,
                    -1e-05
                ],
                [
                    -0.0,
                    -2.79043,
                    0.5547
                ],
                [
                    0.0,
                    0.49332,
                    -2.24784
                ]
            ],
            [
                [
                    -1.00693,
                    -5e-05,
                    1e-05
                ],
                [
                    -0.0,
                    -2.79043,
                    -0.5547
                ],
                [
                    0.0,
                    -0.49328,
                    -2.24787
                ]
            ],
            [
                [
                    -2.79053,
                    -0.0,
                    0.55468
                ],
                [
                    0.0,
                    -1.00728,
                    -1e-05
                ],
                [
                    0.49328,
                    0.0,
                    -2.24787
                ]
            ]
        ]
    },
    "band_gap": 3.8934,
    "is_direct": false,
    "formula": "LaAsO4"
}