{
    "mp_id": "mp-7911",
    "nelements": 3,
    "nsites": 12,
    "elements": [
        "Cu",
        "K",
        "O"
    ],
    "structure": {
        "@module": "pymatgen.core.structure",
        "@class": "Structure",
        "charge": null,
        "lattice": {
            "matrix": [
                [
                    -4.62108149,
                    4.62108149,
                    2.75223262
                ],
                [
                    4.62108149,
                    -4.62108149,
                    2.75223262
                ],
                [
                    4.62108149,
                    4.62108149,
                    -2.75223262
                ]
            ],
            "a": 7.091091077474136,
            "b": 7.091091077474136,
            "c": 7.091091077474136,
            "alpha": 98.66409453929973,
            "beta": 98.66409453929973,
            "gamma": 134.32418596605095,
            "volume": 235.08904049918138
        },
        "sites": [
            {
                "species": [
                    {
                        "element": "K",
                        "occu": 1
                    }
                ],
                "abc": [
                    0.19043397,
                    0.5,
                    0.69043397
                ],
                "xyz": [
                    4.62108149,
                    1.7600217876684303,
                    0.0
                ],
                "label": "K",
                "properties": {}
            },
            {
                "species": [
                    {
                        "element": "K",
                        "occu": 1
                    }
                ],
                "abc": [
                    0.80956603,
                    0.5,
                    0.30956603
                ],
                "xyz": [
                    -2.220446049250313e-16,
                    2.86105970233157,
                    2.75223262
                ],
                "label": "K",
                "properties": {}
            },
            {
                "species": [
                    {
                        "element": "K",
                        "occu": 1
                    }
                ],
                "abc": [
                    0.5,
                    0.19043397,
                    0.69043397
                ],
                "xyz": [
                    1.7600217876684303,
                    4.62108149,
                    0.0
                ],
                "label": "K",
                "properties": {}
            },
            {
                "species": [
                    {
                        "element": "K",
                        "occu": 1
                    }
                ],
                "abc": [
                    0.5,
                    0.80956603,
                    0.30956603
                ],
                "xyz": [
                    2.86105970233157,
                    -2.220446049250313e-16,
                    2.75223262
                ],
                "label": "K",
                "properties": {}
            },
            {
                "species": [
                    {
                        "element": "Cu",
                        "occu": 1
                    }
                ],
                "abc": [
                    0.13731082,
                    0.13731082,
                    0.27462064
                ],
                "xyz": [
                    1.2690443562759537,
                    1.2690443562759537,
                    2.7522326199180824e-06
                ],
                "label": "Cu",
                "properties": {}
            },
            {
                "species": [
                    {
                        "element": "Cu",
                        "occu": 1
                    }
                ],
                "abc": [
                    0.13731082,
                    0.86268918,
                    0.0
                ],
                "xyz": [
                    3.3520325126425567,
                    -3.3520325126425567,
                    2.7522326200000005
                ],
                "label": "Cu",
                "properties": {}
            },
            {
                "species": [
                    {
                        "element": "Cu",
                        "occu": 1
                    }
                ],
                "abc": [
                    0.86268918,
                    0.86268918,
                    0.72537936
                ],
                "xyz": [
                    3.3520371337240467,
                    3.3520371337240467,
                    2.7522298677673804
                ],
                "label": "Cu",
                "properties": {}
            },
            {
                "species": [
                    {
                        "element": "Cu",
                        "occu": 1
                    }
                ],
                "abc": [
                    0.86268918,
                    0.13731082,
                    0.0
                ],
                "xyz": [
                    -3.3520325126425567,
                    3.3520325126425567,
                    2.7522326200000005
                ],
                "label": "Cu",
                "properties": {}
            },
            {
                "species": [
                    {
                        "element": "O",
                        "occu": 1
                    }
                ],
                "abc": [
                    0.0,
                    0.72324018,
                    0.72324018
                ],
                "xyz": [
                    6.684303617244536,
                    0.0,
                    0.0
                ],
                "label": "O",
                "properties": {}
            },
            {
                "species": [
                    {
                        "element": "O",
                        "occu": 1
                    }
                ],
                "abc": [
                    0.72324018,
                    0.0,
                    0.72324018
                ],
                "xyz": [
                    0.0,
                    6.684303617244536,
                    0.0
                ],
                "label": "O",
                "properties": {}
            },
            {
                "species": [
                    {
                        "element": "O",
                        "occu": 1
                    }
                ],
                "abc": [
                    0.27675982,
                    0.0,
                    0.27675982
                ],
                "xyz": [
                    0.0,
                    2.5578593627554636,
                    0.0
                ],
                "label": "O",
                "properties": {}
            },
            {
                "species": [
                    {
                        "element": "O",
                        "occu": 1
                    }
                ],
                "abc": [
                    0.0,
                    0.27675982,
                    0.27675982
                ],
                "xyz": [
                    2.5578593627554636,
                    0.0,
                    0.0
                ],
                "label": "O",
                "properties": {}
            }
        ]
    },
    "spacegroup": {
        "source": "spglib",
        "symbol": "I4/mmm",
        "number": 139,
        "point_group": "4/mmm",
        "crystal_system": "tetragonal",
        "hall": "-I 4 2"
    },
    "dielectric": {
        "epsilon_ionic": [
            [
                2.82946919,
                0.0,
                0.0
            ],
            [
                0.0,
                2.82943446,
                -0.0
            ],
            [
                0.0,
                -0.0,
                2.26846668
            ]
        ],
        "epsilon_ionic_avg": 2.6424567766666667,
        "epsilon_ionic_eig": [
            2.82946919,
            2.82943446,
            2.26846668
        ],
        "epsilon_electronic": [
            [
                3.71919272,
                0.0,
                0.0
            ],
            [
                0.0,
                3.71919272,
                -0.0
            ],
            [
                0.0,
                0.0,
                3.07120151
            ]
        ],
        "epsilon_electronic_avg": 3.50319565,
        "epsilon_electronic_eig": [
            3.71919272,
            3.71919272,
            3.07120151
        ]
    },
    "phonon": {
        "lowest_freq": -0.0673273863499344,
        "frequency": [
            -0.0673273863499344,
            -0.041003343313597895,
            -0.041003343313597895,
            1.871564429220413,
            1.871564429220413,
            2.222491382160779,
            2.7705863026146034,
            2.866069108072614,
            3.3563747037886076,
            3.3563747037886076,
            3.519843059187879,
            3.9947531880216722,
            4.185862777385989,
            4.185862777385989,
            4.21609926805283,
            4.28820865169574,
            4.435306199119462,
            4.435306199119462,
            4.498987239654148,
            4.620768013188755,
            4.900009888959222,
            5.029541584953058,
            5.7783340015792435,
            5.7783340015792435,
            5.984948888801157,
            7.217742550928797,
            7.217742550928797,
            8.303209714792116,
            15.35462341690856,
            15.35462341690856,
            15.870218577849565,
            16.621076789894385,
            16.827984514171003,
            17.976480890432043,
            17.976480890432043,
            18.088189611082516
        ]
    },
    "born_effective_charge": {
        "avg_abs_trace": 0.9593788888888888,
        "tensors": [
            [
                [
                    1.32445,
                    4e-05,
                    -0.0
                ],
                [
                    -0.0,
                    0.99922,
                    -0.0
                ],
                [
                    0.0,
                    1e-05,
                    1.29057
                ]
            ],
            [
                [
                    1.32445,
                    -4e-05,
                    -0.0
                ],
                [
                    -0.0,
                    0.9992,
                    -0.0
                ],
                [
                    0.0,
                    -1e-05,
                    1.29057
                ]
            ],
            [
                [
                    0.99927,
                    -0.0,
                    -0.0
                ],
                [
                    0.0,
                    1.32443,
                    0.0
                ],
                [
                    1e-05,
                    0.0,
                    1.29057
                ]
            ],
            [
                [
                    0.99917,
                    -0.0,
                    -0.0
                ],
                [
                    -0.0,
                    1.32443,
                    0.0
                ],
                [
                    -1e-05,
                    0.0,
                    1.29057
                ]
            ],
            [
                [
                    0.55239,
                    -0.80519,
                    0.0
                ],
                [
                    -0.80522,
                    0.55236,
                    -0.0
                ],
                [
                    3e-05,
                    3e-05,
                    -0.40179
                ]
            ],
            [
                [
                    0.55238,
                    0.80523,
                    -0.0
                ],
                [
                    0.80522,
                    0.55236,
                    -0.0
                ],
                [
                    -3e-05,
                    3e-05,
                    -0.40179
                ]
            ],
            [
                [
                    0.55238,
                    -0.80523,
                    0.0
                ],
                [
                    -0.80519,
                    0.55241,
                    0.0
                ],
                [
                    -3e-05,
                    -3e-05,
                    -0.40179
                ]
            ],
            [
                [
                    0.55239,
                    0.80519,
                    -0.0
                ],
                [
                    0.80519,
                    0.55241,
                    0.0
                ],
                [
                    3e-05,
                    -3e-05,
                    -0.40179
                ]
            ],
            [
                [
                    -1.79047,
                    -0.0,
                    0.0
                ],
                [
                    -0.00012,
                    -1.63793,
                    0.0
                ],
                [
                    3e-05,
                    -0.0,
                    -0.88878
                ]
            ],
            [
                [
                    -1.63794,
                    6e-05,
                    -0.0
                ],
                [
                    -0.0,
                    -1.79048,
                    -0.0
                ],
                [
                    0.0,
                    3e-05,
                    -0.88878
                ]
            ],
            [
                [
                    -1.63794,
                    -6e-05,
                    -0.0
                ],
                [
                    0.0,
                    -1.7905,
                    -0.0
                ],
                [
                    -0.0,
                    -3e-05,
                    -0.88878
                ]
            ],
            [
                [
                    -1.79051,
                    0.0,
                    0.0
                ],
                [
                    0.00012,
                    -1.63793,
                    -0.0
                ],
                [
                    -3e-05,
                    -0.0,
                    -0.88878
                ]
            ]
        ]
    },
    "band_gap": 1.6301,
    "is_direct": false,
    "formula": "KCuO"
}