{
    "mp_id": "mp-766217",
    "nelements": 3,
    "nsites": 26,
    "elements": [
        "Cu",
        "O",
        "Sr"
    ],
    "structure": {
        "@module": "pymatgen.core.structure",
        "@class": "Structure",
        "charge": null,
        "lattice": {
            "matrix": [
                [
                    6.67052251,
                    0.0,
                    0.00035126
                ],
                [
                    0.0,
                    5.41265506,
                    0.0
                ],
                [
                    -4.294161,
                    0.0,
                    9.77792476
                ]
            ],
            "a": 6.670522519248419,
            "b": 5.41265506,
            "c": 10.679308559365726,
            "alpha": 90.0,
            "beta": 113.70657293310336,
            "gamma": 90.0,
            "volume": 353.04245917164275
        },
        "sites": [
            {
                "species": [
                    {
                        "element": "Sr",
                        "occu": 1
                    }
                ],
                "abc": [
                    0.71217314,
                    0.23340572,
                    0.56041512
                ],
                "xyz": [
                    2.3440542092730614,
                    1.2633446513909432,
                    5.479947035663527
                ],
                "label": "Sr",
                "properties": {}
            },
            {
                "species": [
                    {
                        "element": "Sr",
                        "occu": 1
                    }
                ],
                "abc": [
                    0.2878634,
                    0.27600478,
                    0.20534495
                ],
                "xyz": [
                    1.038415013668184,
                    1.4939186690511868,
                    2.0079485858438457
                ],
                "label": "Sr",
                "properties": {}
            },
            {
                "species": [
                    {
                        "element": "Sr",
                        "occu": 1
                    }
                ],
                "abc": [
                    0.71217314,
                    0.26659428,
                    0.06041512
                ],
                "xyz": [
                    4.491134709273061,
                    1.4429828786090568,
                    0.5909846556635276
                ],
                "label": "Sr",
                "properties": {}
            },
            {
                "species": [
                    {
                        "element": "Sr",
                        "occu": 1
                    }
                ],
                "abc": [
                    0.7121366,
                    0.77600478,
                    0.29465505
                ],
                "xyz": [
                    3.4850269963318157,
                    4.200246199051186,
                    2.8813650541561535
                ],
                "label": "Sr",
                "properties": {}
            },
            {
                "species": [
                    {
                        "element": "Sr",
                        "occu": 1
                    }
                ],
                "abc": [
                    0.28782686,
                    0.76659428,
                    0.43958488
                ],
                "xyz": [
                    0.03230730072693855,
                    4.149310408609057,
                    4.2983289843364725
                ],
                "label": "Sr",
                "properties": {}
            },
            {
                "species": [
                    {
                        "element": "Sr",
                        "occu": 1
                    }
                ],
                "abc": [
                    0.2878634,
                    0.22399522,
                    0.70534495
                ],
                "xyz": [
                    -1.108665486331816,
                    1.212408860948813,
                    6.896910965843845
                ],
                "label": "Sr",
                "properties": {}
            },
            {
                "species": [
                    {
                        "element": "Sr",
                        "occu": 1
                    }
                ],
                "abc": [
                    0.7121366,
                    0.72399522,
                    0.79465505
                ],
                "xyz": [
                    1.3379464963318157,
                    3.9187363909488133,
                    7.770327434156155
                ],
                "label": "Sr",
                "properties": {}
            },
            {
                "species": [
                    {
                        "element": "Sr",
                        "occu": 1
                    }
                ],
                "abc": [
                    0.28782686,
                    0.73340572,
                    0.93958488
                ],
                "xyz": [
                    -2.1147731992730616,
                    3.9696721813909432,
                    9.187291364336472
                ],
                "label": "Sr",
                "properties": {}
            },
            {
                "species": [
                    {
                        "element": "Cu",
                        "occu": 1
                    }
                ],
                "abc": [
                    0.00053609,
                    0.25523547,
                    0.38317543
                ],
                "xyz": [
                    -1.641840987251844,
                    1.3815015581869783,
                    3.74666071272762
                ],
                "label": "Cu",
                "properties": {}
            },
            {
                "species": [
                    {
                        "element": "Cu",
                        "occu": 1
                    }
                ],
                "abc": [
                    0.99946391,
                    0.74476453,
                    0.61682457
                ],
                "xyz": [
                    4.018202497251844,
                    4.031153501813021,
                    6.0316153072723795
                ],
                "label": "Cu",
                "properties": {}
            },
            {
                "species": [
                    {
                        "element": "Cu",
                        "occu": 1
                    }
                ],
                "abc": [
                    0.00053609,
                    0.24476453,
                    0.88317543
                ],
                "xyz": [
                    -3.788921487251844,
                    1.3248259718130218,
                    8.63562309272762
                ],
                "label": "Cu",
                "properties": {}
            },
            {
                "species": [
                    {
                        "element": "Cu",
                        "occu": 1
                    }
                ],
                "abc": [
                    0.99946391,
                    0.75523547,
                    0.11682457
                ],
                "xyz": [
                    6.165282997251844,
                    4.087829088186978,
                    1.1426529272723798
                ],
                "label": "Cu",
                "properties": {}
            },
            {
                "species": [
                    {
                        "element": "O",
                        "occu": 1
                    }
                ],
                "abc": [
                    0.69167041,
                    0.27253312,
                    0.31091864
                ],
                "xyz": [
                    3.278668341344888,
                    1.4751277709855872,
                    3.0403820245497433
                ],
                "label": "O",
                "properties": {}
            },
            {
                "species": [
                    {
                        "element": "O",
                        "occu": 1
                    }
                ],
                "abc": [
                    0.30941802,
                    0.264256,
                    0.46485535
                ],
                "xyz": [
                    0.06781615279828013,
                    1.4303265755353598,
                    4.545429322757171
                ],
                "label": "O",
                "properties": {}
            },
            {
                "species": [
                    {
                        "element": "O",
                        "occu": 1
                    }
                ],
                "abc": [
                    0.00049442,
                    0.50637862,
                    0.27557664
                ],
                "xyz": [
                    -1.1800724202596458,
                    2.7408527998188172,
                    2.694567825203575
                ],
                "label": "O",
                "properties": {}
            },
            {
                "species": [
                    {
                        "element": "O",
                        "occu": 1
                    }
                ],
                "abc": [
                    0.0,
                    0.0,
                    0.5
                ],
                "xyz": [
                    -2.1470805,
                    0.0,
                    4.88896238
                ],
                "label": "O",
                "properties": {}
            },
            {
                "species": [
                    {
                        "element": "O",
                        "occu": 1
                    }
                ],
                "abc": [
                    0.0,
                    0.5,
                    0.0
                ],
                "xyz": [
                    0.0,
                    2.70632753,
                    0.0
                ],
                "label": "O",
                "properties": {}
            },
            {
                "species": [
                    {
                        "element": "O",
                        "occu": 1
                    }
                ],
                "abc": [
                    0.99950558,
                    0.00637862,
                    0.22442336
                ],
                "xyz": [
                    5.703514430259646,
                    0.0345252698188172,
                    2.1947458147964243
                ],
                "label": "O",
                "properties": {}
            },
            {
                "species": [
                    {
                        "element": "O",
                        "occu": 1
                    }
                ],
                "abc": [
                    0.69058198,
                    0.735744,
                    0.53514465
                ],
                "xyz": [
                    2.3085453572017194,
                    3.9823284844646394,
                    5.232846697242829
                ],
                "label": "O",
                "properties": {}
            },
            {
                "species": [
                    {
                        "element": "O",
                        "occu": 1
                    }
                ],
                "abc": [
                    0.99950558,
                    0.49362138,
                    0.72442336
                ],
                "xyz": [
                    3.556433930259646,
                    2.6718022601811824,
                    7.083708194796423
                ],
                "label": "O",
                "properties": {}
            },
            {
                "species": [
                    {
                        "element": "O",
                        "occu": 1
                    }
                ],
                "abc": [
                    0.30832959,
                    0.77253312,
                    0.18908136
                ],
                "xyz": [
                    1.2447736686551105,
                    4.181455300985586,
                    1.848931615450257
                ],
                "label": "O",
                "properties": {}
            },
            {
                "species": [
                    {
                        "element": "O",
                        "occu": 1
                    }
                ],
                "abc": [
                    0.30941802,
                    0.235744,
                    0.96485535
                ],
                "xyz": [
                    -2.07926434720172,
                    1.27600095446464,
                    9.434391702757171
                ],
                "label": "O",
                "properties": {}
            },
            {
                "species": [
                    {
                        "element": "O",
                        "occu": 1
                    }
                ],
                "abc": [
                    0.69167041,
                    0.22746688,
                    0.81091864
                ],
                "xyz": [
                    1.131587841344888,
                    1.2311997590144128,
                    7.9293444045497425
                ],
                "label": "O",
                "properties": {}
            },
            {
                "species": [
                    {
                        "element": "O",
                        "occu": 1
                    }
                ],
                "abc": [
                    0.69058198,
                    0.764256,
                    0.03514465
                ],
                "xyz": [
                    4.45562585720172,
                    4.13665410553536,
                    0.34388431724282875
                ],
                "label": "O",
                "properties": {}
            },
            {
                "species": [
                    {
                        "element": "O",
                        "occu": 1
                    }
                ],
                "abc": [
                    0.30832959,
                    0.72746688,
                    0.68908136
                ],
                "xyz": [
                    -0.9023068313448892,
                    3.9375272890144126,
                    6.737893995450257
                ],
                "label": "O",
                "properties": {}
            },
            {
                "species": [
                    {
                        "element": "O",
                        "occu": 1
                    }
                ],
                "abc": [
                    0.00049442,
                    0.99362138,
                    0.77557664
                ],
                "xyz": [
                    -3.327152920259646,
                    5.378129790181182,
                    7.583530205203576
                ],
                "label": "O",
                "properties": {}
            }
        ]
    },
    "spacegroup": {
        "source": "spglib",
        "symbol": "P2_1/c",
        "number": 14,
        "point_group": "2/m",
        "crystal_system": "monoclinic",
        "hall": "-P 2ybc"
    },
    "dielectric": {
        "epsilon_ionic": [
            [
                6.62613262,
                1.1e-07,
                -0.95443357
            ],
            [
                1.1e-07,
                9.81026385,
                1e-07
            ],
            [
                -0.95443357,
                1e-07,
                8.45183058
            ]
        ],
        "epsilon_ionic_avg": 8.296075683333335,
        "epsilon_ionic_eig": [
            6.218286063613963,
            8.85967713638603,
            9.81026385000001
        ],
        "epsilon_electronic": [
            [
                6.64848679,
                0.0,
                -0.29088022
            ],
            [
                0.0,
                7.35649789,
                0.0
            ],
            [
                -0.29087054,
                0.0,
                7.19564429
            ]
        ],
        "epsilon_electronic_avg": 7.066876323333332,
        "epsilon_electronic_eig": [
            6.522748849742403,
            7.321382230257596,
            7.35649789
        ]
    },
    "phonon": {
        "lowest_freq": -0.07397970435705672,
        "frequency": [
            -0.07397970435705672,
            -0.060584257269534404,
            -0.035949750300719785,
            2.7979147003630476,
            2.946520696582942,
            3.118133524410778,
            3.1465157615474824,
            3.383685918996981,
            3.46061505852233,
            3.517413386015172,
            3.6354525858633866,
            3.6506666040806364,
            3.772780013582861,
            3.7817162728571274,
            4.03530012415106,
            4.245074839197936,
            4.2903604153502455,
            4.330548736618596,
            4.429593501276968,
            4.432395940151326,
            4.575430869077756,
            4.717730649787264,
            4.806240789764699,
            4.9107392667766625,
            5.067106832535406,
            5.241617577438129,
            5.277633175603831,
            5.388365104940308,
            5.5037606869869276,
            5.665257445198142,
            5.826171033836767,
            5.864760704079799,
            6.093787103607041,
            6.396204316125674,
            6.476768060021129,
            6.528586035681646,
            6.6181753028648105,
            6.69175688196245,
            6.792008032900575,
            6.837524018661861,
            6.966807906686291,
            7.300156655420523,
            7.54819798464323,
            7.550829210592429,
            7.822484719094129,
            7.972848683501707,
            8.269437729280693,
            8.336112687951179,
            8.358387305251279,
            9.056939182330892,
            9.544475091921427,
            9.587816467236502,
            10.06741604107396,
            10.344239222471495,
            10.486205645548292,
            10.503432356080818,
            10.954336514293908,
            11.069370464084113,
            11.255211924993786,
            11.849738475188468,
            12.076213932643391,
            12.086785798628782,
            12.481000354887994,
            12.705648957361971,
            13.691412380770977,
            13.72994833147455,
            14.210863966256158,
            14.71684152264279,
            14.817953442754508,
            15.077623063868014,
            15.498374296513242,
            15.539556165262859,
            17.534544362515245,
            18.13806878138164,
            18.566416629403758,
            19.5231781856643,
            19.550473509015347,
            20.32991841651265
        ]
    },
    "born_effective_charge": {
        "avg_abs_trace": 2.0301615384615386,
        "tensors": [
            [
                [
                    2.56092,
                    -0.0278,
                    0.07411
                ],
                [
                    0.30103,
                    2.53206,
                    1.06699
                ],
                [
                    0.17107,
                    -0.12709,
                    2.52572
                ]
            ],
            [
                [
                    2.67481,
                    -0.06062,
                    0.07591
                ],
                [
                    0.57118,
                    2.52739,
                    -0.56456
                ],
                [
                    -0.01721,
                    0.06582,
                    2.46492
                ]
            ],
            [
                [
                    2.56092,
                    0.0278,
                    0.07411
                ],
                [
                    -0.3015,
                    2.53364,
                    -1.06646
                ],
                [
                    0.17107,
                    0.12709,
                    2.52572
                ]
            ],
            [
                [
                    2.67431,
                    0.06057,
                    0.07577
                ],
                [
                    -0.57118,
                    2.52739,
                    0.56456
                ],
                [
                    -0.0168,
                    -0.06615,
                    2.4644
                ]
            ],
            [
                [
                    2.56049,
                    -0.02738,
                    0.07409
                ],
                [
                    0.3015,
                    2.53364,
                    1.06646
                ],
                [
                    0.17073,
                    -0.12718,
                    2.52549
                ]
            ],
            [
                [
                    2.67481,
                    0.06062,
                    0.07591
                ],
                [
                    -0.57165,
                    2.52692,
                    0.56607
                ],
                [
                    -0.01721,
                    -0.06582,
                    2.46492
                ]
            ],
            [
                [
                    2.67431,
                    -0.06057,
                    0.07577
                ],
                [
                    0.57165,
                    2.52692,
                    -0.56607
                ],
                [
                    -0.0168,
                    0.06615,
                    2.4644
                ]
            ],
            [
                [
                    2.56049,
                    0.02738,
                    0.07409
                ],
                [
                    -0.30103,
                    2.53206,
                    -1.06699
                ],
                [
                    0.17073,
                    0.12718,
                    2.52549
                ]
            ],
            [
                [
                    1.87506,
                    0.46355,
                    0.2256
                ],
                [
                    0.37976,
                    1.15607,
                    -0.70271
                ],
                [
                    0.2326,
                    -1.10578,
                    1.47681
                ]
            ],
            [
                [
                    1.87517,
                    0.46372,
                    0.22575
                ],
                [
                    0.37998,
                    1.1574,
                    -0.70296
                ],
                [
                    0.23277,
                    -1.10589,
                    1.47656
                ]
            ],
            [
                [
                    1.87506,
                    -0.46355,
                    0.2256
                ],
                [
                    -0.37998,
                    1.1574,
                    0.70296
                ],
                [
                    0.2326,
                    1.10578,
                    1.47681
                ]
            ],
            [
                [
                    1.87517,
                    -0.46372,
                    0.22575
                ],
                [
                    -0.37976,
                    1.15607,
                    0.70271
                ],
                [
                    0.23277,
                    1.10589,
                    1.47656
                ]
            ],
            [
                [
                    -2.82646,
                    0.04867,
                    -0.45953
                ],
                [
                    0.38992,
                    -1.53621,
                    -0.2696
                ],
                [
                    -0.338,
                    -0.27414,
                    -1.77587
                ]
            ],
            [
                [
                    -2.63268,
                    0.24679,
                    -0.46568
                ],
                [
                    -0.32699,
                    -1.52196,
                    -0.72409
                ],
                [
                    -0.63262,
                    -0.19703,
                    -1.94784
                ]
            ],
            [
                [
                    -0.86501,
                    0.11509,
                    0.14136
                ],
                [
                    0.24941,
                    -1.65036,
                    -0.72688
                ],
                [
                    0.1928,
                    -0.28893,
                    -1.15668
                ]
            ],
            [
                [
                    -1.57173,
                    -0.87552,
                    0.81706
                ],
                [
                    -0.37124,
                    -3.01386,
                    0.67225
                ],
                [
                    0.78252,
                    2.05424,
                    -3.17253
                ]
            ],
            [
                [
                    -1.57173,
                    0.87552,
                    0.81706
                ],
                [
                    0.37124,
                    -3.01386,
                    -0.67225
                ],
                [
                    0.78252,
                    -2.05424,
                    -3.17253
                ]
            ],
            [
                [
                    -0.86558,
                    -0.11495,
                    0.14099
                ],
                [
                    -0.24941,
                    -1.65036,
                    0.72688
                ],
                [
                    0.19292,
                    0.28908,
                    -1.15735
                ]
            ],
            [
                [
                    -2.63273,
                    0.2467,
                    -0.466
                ],
                [
                    -0.3262,
                    -1.52268,
                    -0.72317
                ],
                [
                    -0.63245,
                    -0.19728,
                    -1.94784
                ]
            ],
            [
                [
                    -0.86558,
                    0.11495,
                    0.14099
                ],
                [
                    0.24793,
                    -1.65133,
                    -0.72445
                ],
                [
                    0.19292,
                    -0.28908,
                    -1.15735
                ]
            ],
            [
                [
                    -2.82658,
                    -0.04854,
                    -0.45942
                ],
                [
                    -0.38992,
                    -1.53621,
                    0.2696
                ],
                [
                    -0.33835,
                    0.27456,
                    -1.77581
                ]
            ],
            [
                [
                    -2.63268,
                    -0.24679,
                    -0.46568
                ],
                [
                    0.3262,
                    -1.52268,
                    0.72317
                ],
                [
                    -0.63262,
                    0.19703,
                    -1.94784
                ]
            ],
            [
                [
                    -2.82646,
                    -0.04867,
                    -0.45953
                ],
                [
                    -0.38831,
                    -1.53707,
                    0.2695
                ],
                [
                    -0.338,
                    0.27414,
                    -1.77587
                ]
            ],
            [
                [
                    -2.63273,
                    -0.2467,
                    -0.466
                ],
                [
                    0.32699,
                    -1.52196,
                    0.72409
                ],
                [
                    -0.63245,
                    0.19728,
                    -1.94784
                ]
            ],
            [
                [
                    -2.82658,
                    0.04854,
                    -0.45942
                ],
                [
                    0.38831,
                    -1.53707,
                    -0.2695
                ],
                [
                    -0.33835,
                    -0.27456,
                    -1.77581
                ]
            ],
            [
                [
                    -0.86501,
                    -0.11509,
                    0.14136
                ],
                [
                    -0.24793,
                    -1.65133,
                    0.72445
                ],
                [
                    0.1928,
                    0.28893,
                    -1.15668
                ]
            ]
        ]
    },
    "band_gap": 0.7991999999999999,
    "is_direct": false,
    "formula": "Sr4Cu2O7"
}