{
    "mp_id": "mp-756156",
    "nelements": 3,
    "nsites": 12,
    "elements": [
        "O",
        "Rb",
        "Zr"
    ],
    "structure": {
        "@module": "pymatgen.core.structure",
        "@class": "Structure",
        "charge": null,
        "lattice": {
            "matrix": [
                [
                    5.40355179,
                    -3.65587363,
                    0.0
                ],
                [
                    5.40355179,
                    3.65587363,
                    0.0
                ],
                [
                    0.0,
                    0.0,
                    5.94186617
                ]
            ],
            "a": 6.524092576423297,
            "b": 6.524092576423297,
            "c": 5.94186617,
            "alpha": 90.0,
            "beta": 90.0,
            "gamma": 68.1620978294359,
            "volume": 234.75959693543464
        },
        "sites": [
            {
                "species": [
                    {
                        "element": "Rb",
                        "occu": 1
                    }
                ],
                "abc": [
                    0.47696285,
                    0.19779074,
                    0.73668257
                ],
                "xyz": [
                    3.646065969053426,
                    -1.0206179551804593,
                    4.377269240711657
                ],
                "label": "Rb",
                "properties": {}
            },
            {
                "species": [
                    {
                        "element": "Rb",
                        "occu": 1
                    }
                ],
                "abc": [
                    0.19779074,
                    0.47696285,
                    0.23668257
                ],
                "xyz": [
                    3.646065969053426,
                    1.0206179551804593,
                    1.406336155711657
                ],
                "label": "Rb",
                "properties": {}
            },
            {
                "species": [
                    {
                        "element": "Rb",
                        "occu": 1
                    }
                ],
                "abc": [
                    0.52303715,
                    0.80220926,
                    0.23668257
                ],
                "xyz": [
                    7.161037610946574,
                    1.0206179551804595,
                    1.406336155711657
                ],
                "label": "Rb",
                "properties": {}
            },
            {
                "species": [
                    {
                        "element": "Rb",
                        "occu": 1
                    }
                ],
                "abc": [
                    0.80220926,
                    0.52303715,
                    0.73668257
                ],
                "xyz": [
                    7.161037610946574,
                    -1.0206179551804595,
                    4.377269240711657
                ],
                "label": "Rb",
                "properties": {}
            },
            {
                "species": [
                    {
                        "element": "Zr",
                        "occu": 1
                    }
                ],
                "abc": [
                    0.91222872,
                    0.08777128,
                    0.26474143
                ],
                "xyz": [
                    5.40355179,
                    -3.014112213953307,
                    1.5730581467144231
                ],
                "label": "Zr",
                "properties": {}
            },
            {
                "species": [
                    {
                        "element": "Zr",
                        "occu": 1
                    }
                ],
                "abc": [
                    0.08777128,
                    0.91222872,
                    0.76474143
                ],
                "xyz": [
                    5.40355179,
                    3.014112213953307,
                    4.543991231714424
                ],
                "label": "Zr",
                "properties": {}
            },
            {
                "species": [
                    {
                        "element": "O",
                        "occu": 1
                    }
                ],
                "abc": [
                    0.13922746,
                    0.11058952,
                    0.50565714
                ],
                "xyz": [
                    1.3498989894513942,
                    -0.10469668966352219,
                    3.0045470537849535
                ],
                "label": "O",
                "properties": {}
            },
            {
                "species": [
                    {
                        "element": "O",
                        "occu": 1
                    }
                ],
                "abc": [
                    0.11058952,
                    0.13922746,
                    0.00565714
                ],
                "xyz": [
                    1.3498989894513942,
                    0.10469668966352219,
                    0.0336139687849538
                ],
                "label": "O",
                "properties": {}
            },
            {
                "species": [
                    {
                        "element": "O",
                        "occu": 1
                    }
                ],
                "abc": [
                    0.64951309,
                    0.35048691,
                    0.31058114
                ],
                "xyz": [
                    5.40355179,
                    -1.0932019261416335,
                    1.8454315688060337
                ],
                "label": "O",
                "properties": {}
            },
            {
                "species": [
                    {
                        "element": "O",
                        "occu": 1
                    }
                ],
                "abc": [
                    0.35048691,
                    0.64951309,
                    0.81058114
                ],
                "xyz": [
                    5.40355179,
                    1.0932019261416335,
                    4.816364653806034
                ],
                "label": "O",
                "properties": {}
            },
            {
                "species": [
                    {
                        "element": "O",
                        "occu": 1
                    }
                ],
                "abc": [
                    0.86077254,
                    0.88941048,
                    0.00565714
                ],
                "xyz": [
                    9.457204590548606,
                    0.10469668966352241,
                    0.0336139687849538
                ],
                "label": "O",
                "properties": {}
            },
            {
                "species": [
                    {
                        "element": "O",
                        "occu": 1
                    }
                ],
                "abc": [
                    0.88941048,
                    0.86077254,
                    0.50565714
                ],
                "xyz": [
                    9.457204590548606,
                    -0.10469668966352241,
                    3.0045470537849535
                ],
                "label": "O",
                "properties": {}
            }
        ]
    },
    "spacegroup": {
        "source": "spglib",
        "symbol": "Cmc2_1",
        "number": 36,
        "point_group": "mm2",
        "crystal_system": "orthorhombic",
        "hall": "C 2c -2"
    },
    "dielectric": {
        "epsilon_ionic": [
            [
                4.68757232,
                0.0,
                -8.4e-06
            ],
            [
                0.0,
                4.55065526,
                5.82e-06
            ],
            [
                -8.4e-06,
                5.82e-06,
                13.19115928
            ]
        ],
        "epsilon_ionic_avg": 7.476462286666666,
        "epsilon_ionic_eig": [
            4.687572319991705,
            13.191159280012213,
            4.55065525999608
        ],
        "epsilon_electronic": [
            [
                3.04244999,
                0.0,
                0.0
            ],
            [
                0.0,
                3.20905718,
                0.0
            ],
            [
                0.0,
                0.0,
                3.36529048
            ]
        ],
        "epsilon_electronic_avg": 3.2055992166666667,
        "epsilon_electronic_eig": [
            3.04244999,
            3.20905718,
            3.36529048
        ]
    },
    "phonon": {
        "lowest_freq": -0.059753435650333565,
        "frequency": [
            -0.059753435650333565,
            -0.009189384305662568,
            -0.005841087469598723,
            1.7373415542385806,
            1.7656975276583327,
            1.808914546298604,
            2.2369231754144603,
            2.433420844850855,
            2.5283303902506185,
            2.692965394302096,
            2.7357485567431667,
            2.8424352760229867,
            3.077109814144971,
            3.447655141096265,
            3.4754612799116047,
            3.5762424935236083,
            3.6523112382282354,
            3.8680779889046417,
            5.296910740936911,
            5.661345956762323,
            5.865195729595269,
            6.83775597510496,
            7.968063682539047,
            8.080126787772015,
            9.612763277444433,
            9.87573007065288,
            11.76510558161052,
            12.105118618701109,
            12.908836857625822,
            14.129783920279559,
            14.557749390291951,
            15.40130810193658,
            16.595962180330705,
            17.898094999857303,
            20.160095513476712,
            21.03606951266624
        ]
    },
    "born_effective_charge": {
        "avg_abs_trace": 2.034647222222222,
        "tensors": [
            [
                [
                    1.32728,
                    0.11166,
                    0.00397
                ],
                [
                    0.05873,
                    1.31087,
                    0.0522
                ],
                [
                    0.02186,
                    0.00879,
                    1.13117
                ]
            ],
            [
                [
                    1.32728,
                    -0.11166,
                    0.00397
                ],
                [
                    -0.05872,
                    1.31088,
                    -0.0522
                ],
                [
                    0.02186,
                    -0.00879,
                    1.13117
                ]
            ],
            [
                [
                    1.32728,
                    0.11167,
                    -0.00397
                ],
                [
                    0.05872,
                    1.31088,
                    -0.0522
                ],
                [
                    -0.02186,
                    -0.00879,
                    1.13117
                ]
            ],
            [
                [
                    1.32728,
                    -0.11167,
                    -0.00397
                ],
                [
                    -0.05873,
                    1.31087,
                    0.0522
                ],
                [
                    -0.02186,
                    0.00879,
                    1.13117
                ]
            ],
            [
                [
                    2.82822,
                    1e-05,
                    0.0
                ],
                [
                    0.0,
                    3.08637,
                    0.10667
                ],
                [
                    -0.0,
                    0.00418,
                    4.85859
                ]
            ],
            [
                [
                    2.82822,
                    -1e-05,
                    0.0
                ],
                [
                    0.0,
                    3.08637,
                    -0.10667
                ],
                [
                    -0.0,
                    -0.00418,
                    4.85859
                ]
            ],
            [
                [
                    -2.06562,
                    -0.09095,
                    0.00257
                ],
                [
                    -0.07919,
                    -1.30443,
                    0.48776
                ],
                [
                    -0.02903,
                    0.73509,
                    -2.87927
                ]
            ],
            [
                [
                    -2.06562,
                    0.09095,
                    0.00257
                ],
                [
                    0.07919,
                    -1.30443,
                    -0.48776
                ],
                [
                    -0.02903,
                    -0.73509,
                    -2.87927
                ]
            ],
            [
                [
                    -1.35152,
                    -1e-05,
                    -0.0
                ],
                [
                    0.0,
                    -3.09926,
                    -0.19919
                ],
                [
                    -0.0,
                    -0.13548,
                    -1.36238
                ]
            ],
            [
                [
                    -1.35152,
                    1e-05,
                    -0.0
                ],
                [
                    0.0,
                    -3.09926,
                    0.19919
                ],
                [
                    -0.0,
                    0.13548,
                    -1.36238
                ]
            ],
            [
                [
                    -2.06564,
                    -0.09094,
                    -0.00256
                ],
                [
                    -0.07919,
                    -1.30443,
                    -0.48776
                ],
                [
                    0.02903,
                    -0.73509,
                    -2.87927
                ]
            ],
            [
                [
                    -2.06564,
                    0.09094,
                    -0.00256
                ],
                [
                    0.07919,
                    -1.30443,
                    0.48776
                ],
                [
                    0.02903,
                    0.73509,
                    -2.87927
                ]
            ]
        ]
    },
    "band_gap": 3.5664999999999996,
    "is_direct": false,
    "formula": "Rb2ZrO3"
}