{
    "mp_id": "mp-7688",
    "nelements": 4,
    "nsites": 16,
    "elements": [
        "Cd",
        "Ge",
        "Li",
        "O"
    ],
    "structure": {
        "@module": "pymatgen.core.structure",
        "@class": "Structure",
        "charge": null,
        "lattice": {
            "matrix": [
                [
                    6.64935855,
                    0.0,
                    0.0
                ],
                [
                    0.0,
                    5.50167865,
                    0.0
                ],
                [
                    0.0,
                    0.0,
                    5.16954113
                ]
            ],
            "a": 6.64935855,
            "b": 5.50167865,
            "c": 5.16954113,
            "alpha": 90.0,
            "beta": 90.0,
            "gamma": 90.0,
            "volume": 189.1154309554237
        },
        "sites": [
            {
                "species": [
                    {
                        "element": "Li",
                        "occu": 1
                    }
                ],
                "abc": [
                    0.25030035,
                    0.33024425,
                    0.98821207
                ],
                "xyz": [
                    1.6643367723404925,
                    1.8168977395102626,
                    5.1086029410274385
                ],
                "label": "Li",
                "properties": {}
            },
            {
                "species": [
                    {
                        "element": "Li",
                        "occu": 1
                    }
                ],
                "abc": [
                    0.75030035,
                    0.66975575,
                    0.48821207
                ],
                "xyz": [
                    4.989016047340492,
                    3.6847809104897373,
                    2.523832376027439
                ],
                "label": "Li",
                "properties": {}
            },
            {
                "species": [
                    {
                        "element": "Li",
                        "occu": 1
                    }
                ],
                "abc": [
                    0.74969965,
                    0.33024425,
                    0.98821207
                ],
                "xyz": [
                    4.985021777659507,
                    1.8168977395102626,
                    5.1086029410274385
                ],
                "label": "Li",
                "properties": {}
            },
            {
                "species": [
                    {
                        "element": "Li",
                        "occu": 1
                    }
                ],
                "abc": [
                    0.24969965,
                    0.66975575,
                    0.48821207
                ],
                "xyz": [
                    1.6603425026595073,
                    3.6847809104897373,
                    2.523832376027439
                ],
                "label": "Li",
                "properties": {}
            },
            {
                "species": [
                    {
                        "element": "Cd",
                        "occu": 1
                    }
                ],
                "abc": [
                    0.5,
                    0.17861222,
                    0.49096789
                ],
                "xyz": [
                    3.324679275,
                    0.9826670374031029,
                    2.5380787008643155
                ],
                "label": "Cd",
                "properties": {}
            },
            {
                "species": [
                    {
                        "element": "Cd",
                        "occu": 1
                    }
                ],
                "abc": [
                    0.0,
                    0.82138778,
                    0.99096789
                ],
                "xyz": [
                    0.0,
                    4.519011612596897,
                    5.122849265864315
                ],
                "label": "Cd",
                "properties": {}
            },
            {
                "species": [
                    {
                        "element": "Ge",
                        "occu": 1
                    }
                ],
                "abc": [
                    0.0,
                    0.18428571,
                    0.48205656
                ],
                "xyz": [
                    0.0,
                    1.0138807562070913,
                    2.492011213906313
                ],
                "label": "Ge",
                "properties": {}
            },
            {
                "species": [
                    {
                        "element": "Ge",
                        "occu": 1
                    }
                ],
                "abc": [
                    0.5,
                    0.81571429,
                    0.98205656
                ],
                "xyz": [
                    3.324679275,
                    4.487797893792908,
                    5.076781778906312
                ],
                "label": "Ge",
                "properties": {}
            },
            {
                "species": [
                    {
                        "element": "O",
                        "occu": 1
                    }
                ],
                "abc": [
                    0.0,
                    0.86578572,
                    0.56356859
                ],
                "xyz": [
                    0.0,
                    4.763274811198878,
                    2.913391005581107
                ],
                "label": "O",
                "properties": {}
            },
            {
                "species": [
                    {
                        "element": "O",
                        "occu": 1
                    }
                ],
                "abc": [
                    0.0,
                    0.20287561,
                    0.13586079
                ],
                "xyz": [
                    0.0,
                    1.1161564121427265,
                    0.7023379418592928
                ],
                "label": "O",
                "properties": {}
            },
            {
                "species": [
                    {
                        "element": "O",
                        "occu": 1
                    }
                ],
                "abc": [
                    0.5,
                    0.13421428,
                    0.06356859
                ],
                "xyz": [
                    3.324679275,
                    0.7384038388011219,
                    0.3286204405811067
                ],
                "label": "O",
                "properties": {}
            },
            {
                "species": [
                    {
                        "element": "O",
                        "occu": 1
                    }
                ],
                "abc": [
                    0.5,
                    0.79712439,
                    0.63586079
                ],
                "xyz": [
                    3.324679275,
                    4.385522237857273,
                    3.2871085068592922
                ],
                "label": "O",
                "properties": {}
            },
            {
                "species": [
                    {
                        "element": "O",
                        "occu": 1
                    }
                ],
                "abc": [
                    0.28448075,
                    0.66313644,
                    0.11156151
                ],
                "xyz": [
                    1.8916145073229125,
                    3.648363593985006,
                    0.5767218144699063
                ],
                "label": "O",
                "properties": {}
            },
            {
                "species": [
                    {
                        "element": "O",
                        "occu": 1
                    }
                ],
                "abc": [
                    0.21551925,
                    0.33686356,
                    0.61156151
                ],
                "xyz": [
                    1.4330647676770873,
                    1.853315056014994,
                    3.161492379469906
                ],
                "label": "O",
                "properties": {}
            },
            {
                "species": [
                    {
                        "element": "O",
                        "occu": 1
                    }
                ],
                "abc": [
                    0.78448075,
                    0.33686356,
                    0.61156151
                ],
                "xyz": [
                    5.216293782322912,
                    1.853315056014994,
                    3.161492379469906
                ],
                "label": "O",
                "properties": {}
            },
            {
                "species": [
                    {
                        "element": "O",
                        "occu": 1
                    }
                ],
                "abc": [
                    0.71551925,
                    0.66313644,
                    0.11156151
                ],
                "xyz": [
                    4.757744042677087,
                    3.648363593985006,
                    0.5767218144699063
                ],
                "label": "O",
                "properties": {}
            }
        ]
    },
    "spacegroup": {
        "source": "spglib",
        "symbol": "Pmn2_1",
        "number": 31,
        "point_group": "mm2",
        "crystal_system": "orthorhombic",
        "hall": "P 2ac -2"
    },
    "dielectric": {
        "epsilon_ionic": [
            [
                3.99782737,
                -0.0,
                -3e-08
            ],
            [
                -0.0,
                3.31069374,
                -2.2e-07
            ],
            [
                -3e-08,
                -2.2e-07,
                4.3728252
            ]
        ],
        "epsilon_ionic_avg": 3.893782103333335,
        "epsilon_ionic_eig": [
            3.9978273699999978,
            4.372825200000053,
            3.3106937399999543
        ],
        "epsilon_electronic": [
            [
                3.7100269,
                0.0,
                0.0
            ],
            [
                0.0,
                3.37954283,
                0.0
            ],
            [
                0.0,
                0.0,
                3.64155966
            ]
        ],
        "epsilon_electronic_avg": 3.57704313,
        "epsilon_electronic_eig": [
            3.7100269,
            3.37954283,
            3.64155966
        ]
    },
    "phonon": {
        "lowest_freq": -0.06920435170592172,
        "frequency": [
            -0.06920435170592172,
            -0.040516007338506264,
            -0.023797530738566837,
            2.058785124264708,
            2.4860286142122106,
            2.791441986402941,
            4.099922425718734,
            4.164611402457508,
            4.351306370171747,
            4.523599182012343,
            5.028948424746848,
            5.1069216261219585,
            5.7812749154219985,
            8.100918488133479,
            8.177778826734862,
            8.68894160337006,
            9.061040328549304,
            9.2483631017339,
            9.66727824460298,
            10.853284448432056,
            10.877896532206309,
            11.221519283488007,
            11.25114524562301,
            11.34836089628494,
            11.656613924550225,
            12.001028145551595,
            12.132110486020837,
            12.149475913394756,
            12.411301822071778,
            12.435131000135895,
            13.05973451535584,
            13.383211253223683,
            13.531567439051038,
            13.533788909020183,
            13.603831725526724,
            13.793840737438057,
            13.978431735517578,
            14.07425671329197,
            14.203869894059524,
            14.385722664861909,
            20.195178851741616,
            20.479874199927,
            20.725428659831035,
            20.835863154327324,
            21.145966335320367,
            21.24009824082771,
            21.793490981803664,
            22.58442923132354
        ]
    },
    "born_effective_charge": {
        "avg_abs_trace": 1.821449583333333,
        "tensors": [
            [
                [
                    0.95428,
                    0.02985,
                    0.03581
                ],
                [
                    0.00441,
                    1.14062,
                    0.0613
                ],
                [
                    -0.0516,
                    -0.10237,
                    1.03981
                ]
            ],
            [
                [
                    0.95428,
                    -0.02985,
                    0.03581
                ],
                [
                    -0.00441,
                    1.14062,
                    -0.06131
                ],
                [
                    -0.0516,
                    0.10237,
                    1.03981
                ]
            ],
            [
                [
                    0.95428,
                    -0.02985,
                    -0.03581
                ],
                [
                    -0.00441,
                    1.14062,
                    0.0613
                ],
                [
                    0.0516,
                    -0.10237,
                    1.03981
                ]
            ],
            [
                [
                    0.95428,
                    0.02985,
                    -0.03581
                ],
                [
                    0.00441,
                    1.14062,
                    -0.06131
                ],
                [
                    0.0516,
                    0.10237,
                    1.03981
                ]
            ],
            [
                [
                    2.43011,
                    0.0,
                    -0.0
                ],
                [
                    -0.0,
                    1.88284,
                    0.04251
                ],
                [
                    0.0,
                    -0.24255,
                    2.32401
                ]
            ],
            [
                [
                    2.43011,
                    -0.0,
                    -0.0
                ],
                [
                    -0.0,
                    1.88284,
                    -0.04251
                ],
                [
                    0.0,
                    0.24255,
                    2.32401
                ]
            ],
            [
                [
                    3.33172,
                    0.0,
                    0.0
                ],
                [
                    -0.0,
                    2.56901,
                    0.16502
                ],
                [
                    0.0,
                    -0.42365,
                    3.05027
                ]
            ],
            [
                [
                    3.33172,
                    -0.0,
                    0.0
                ],
                [
                    -0.0,
                    2.56901,
                    -0.16502
                ],
                [
                    0.0,
                    0.42365,
                    3.05027
                ]
            ],
            [
                [
                    -1.44603,
                    -0.0,
                    0.0
                ],
                [
                    -0.0,
                    -1.91478,
                    0.22297
                ],
                [
                    0.0,
                    0.38656,
                    -2.04123
                ]
            ],
            [
                [
                    -1.43241,
                    -0.0,
                    0.0
                ],
                [
                    -0.0,
                    -1.619,
                    -0.15628
                ],
                [
                    0.0,
                    -0.05051,
                    -2.32858
                ]
            ],
            [
                [
                    -1.44603,
                    0.0,
                    0.0
                ],
                [
                    -0.0,
                    -1.91478,
                    -0.22297
                ],
                [
                    0.0,
                    -0.38656,
                    -2.04123
                ]
            ],
            [
                [
                    -1.43241,
                    0.0,
                    0.0
                ],
                [
                    -0.0,
                    -1.619,
                    0.15628
                ],
                [
                    0.0,
                    0.05051,
                    -2.32858
                ]
            ],
            [
                [
                    -2.39598,
                    -0.23306,
                    0.1966
                ],
                [
                    -0.11947,
                    -1.59966,
                    0.17622
                ],
                [
                    0.13921,
                    0.04779,
                    -1.54205
                ]
            ],
            [
                [
                    -2.39598,
                    -0.23306,
                    -0.1966
                ],
                [
                    -0.11947,
                    -1.59966,
                    -0.17622
                ],
                [
                    -0.13921,
                    -0.04779,
                    -1.54205
                ]
            ],
            [
                [
                    -2.39598,
                    0.23306,
                    0.1966
                ],
                [
                    0.11947,
                    -1.59966,
                    -0.17622
                ],
                [
                    0.13921,
                    -0.04779,
                    -1.54205
                ]
            ],
            [
                [
                    -2.39598,
                    0.23306,
                    -0.1966
                ],
                [
                    0.11947,
                    -1.59966,
                    0.17622
                ],
                [
                    -0.13921,
                    0.04779,
                    -1.54205
                ]
            ]
        ]
    },
    "band_gap": 2.4160999999999997,
    "is_direct": false,
    "formula": "Li2CdGeO4"
}