{
    "mp_id": "mp-755292",
    "nelements": 3,
    "nsites": 20,
    "elements": [
        "Be",
        "Cs",
        "O"
    ],
    "structure": {
        "@module": "pymatgen.core.structure",
        "@class": "Structure",
        "charge": null,
        "lattice": {
            "matrix": [
                [
                    8.17181,
                    0.0,
                    -0.01949098
                ],
                [
                    0.0,
                    6.02295712,
                    0.0
                ],
                [
                    -7.86127671,
                    0.0,
                    8.79189928
                ]
            ],
            "a": 8.171833244407363,
            "b": 6.02295712,
            "c": 11.793946093689463,
            "alpha": 90.0,
            "beta": 131.93814898465536,
            "gamma": 90.0,
            "volume": 431.8008922830969
        },
        "sites": [
            {
                "species": [
                    {
                        "element": "Cs",
                        "occu": 1
                    }
                ],
                "abc": [
                    0.88206348,
                    0.04015538,
                    0.77577647
                ],
                "xyz": [
                    1.1094616707217861,
                    0.2418541318773056,
                    6.803356306386532
                ],
                "label": "Cs",
                "properties": {}
            },
            {
                "species": [
                    {
                        "element": "Cs",
                        "occu": 1
                    }
                ],
                "abc": [
                    0.30309977,
                    0.40952155,
                    0.12112786
                ],
                "xyz": [
                    1.5246541067335595,
                    2.4665307353659363,
                    1.0590362335668664
                ],
                "label": "Cs",
                "properties": {}
            },
            {
                "species": [
                    {
                        "element": "Cs",
                        "occu": 1
                    }
                ],
                "abc": [
                    0.69690023,
                    0.90952155,
                    0.37887214
                ],
                "xyz": [
                    2.7165175382664413,
                    5.478009295365936,
                    3.3174224264331342
                ],
                "label": "Cs",
                "properties": {}
            },
            {
                "species": [
                    {
                        "element": "Cs",
                        "occu": 1
                    }
                ],
                "abc": [
                    0.11793652,
                    0.54015538,
                    0.72422353
                ],
                "xyz": [
                    -4.729566735721786,
                    3.2533326918773056,
                    6.365001633613469
                ],
                "label": "Cs",
                "properties": {}
            },
            {
                "species": [
                    {
                        "element": "Cs",
                        "occu": 1
                    }
                ],
                "abc": [
                    0.88206348,
                    0.45984462,
                    0.27577647
                ],
                "xyz": [
                    5.040100025721786,
                    2.7696244281226945,
                    2.4074066663865312
                ],
                "label": "Cs",
                "properties": {}
            },
            {
                "species": [
                    {
                        "element": "Cs",
                        "occu": 1
                    }
                ],
                "abc": [
                    0.30309977,
                    0.09047845,
                    0.62112786
                ],
                "xyz": [
                    -2.405984248266441,
                    0.544947824634064,
                    5.454985873566867
                ],
                "label": "Cs",
                "properties": {}
            },
            {
                "species": [
                    {
                        "element": "Cs",
                        "occu": 1
                    }
                ],
                "abc": [
                    0.69690023,
                    0.59047845,
                    0.87887214
                ],
                "xyz": [
                    -1.2141208167335584,
                    3.556426384634064,
                    7.713372066433134
                ],
                "label": "Cs",
                "properties": {}
            },
            {
                "species": [
                    {
                        "element": "Cs",
                        "occu": 1
                    }
                ],
                "abc": [
                    0.11793652,
                    0.95984462,
                    0.22422353
                ],
                "xyz": [
                    -0.7989283807217864,
                    5.7811029881226945,
                    1.969051993613469
                ],
                "label": "Cs",
                "properties": {}
            },
            {
                "species": [
                    {
                        "element": "Be",
                        "occu": 1
                    }
                ],
                "abc": [
                    0.59194987,
                    0.44342762,
                    0.47577243
                ],
                "xyz": [
                    1.0971231439455944,
                    2.6707455410836545,
                    4.171405601683679
                ],
                "label": "Be",
                "properties": {}
            },
            {
                "species": [
                    {
                        "element": "Be",
                        "occu": 1
                    }
                ],
                "abc": [
                    0.40805013,
                    0.94342762,
                    0.02422757
                ],
                "xyz": [
                    3.1440485010544057,
                    5.682224101083655,
                    0.20505305831632223
                ],
                "label": "Be",
                "properties": {}
            },
            {
                "species": [
                    {
                        "element": "Be",
                        "occu": 1
                    }
                ],
                "abc": [
                    0.59194987,
                    0.05657238,
                    0.97577243
                ],
                "xyz": [
                    -2.8335152110544053,
                    0.3407330189163456,
                    8.567355241683678
                ],
                "label": "Be",
                "properties": {}
            },
            {
                "species": [
                    {
                        "element": "Be",
                        "occu": 1
                    }
                ],
                "abc": [
                    0.40805013,
                    0.55657238,
                    0.52422757
                ],
                "xyz": [
                    -0.7865898539455944,
                    3.3522115789163456,
                    4.601002698316322
                ],
                "label": "Be",
                "properties": {}
            },
            {
                "species": [
                    {
                        "element": "O",
                        "occu": 1
                    }
                ],
                "abc": [
                    0.66609906,
                    0.58443534,
                    0.6184323
                ],
                "xyz": [
                    0.5815675227968669,
                    3.5200289922326204,
                    5.424211569642266
                ],
                "label": "O",
                "properties": {}
            },
            {
                "species": [
                    {
                        "element": "O",
                        "occu": 1
                    }
                ],
                "abc": [
                    0.27586258,
                    0.87543461,
                    0.06540795
                ],
                "xyz": [
                    1.7401065958859556,
                    5.272705117393923,
                    0.5696832764817477
                ],
                "label": "O",
                "properties": {}
            },
            {
                "species": [
                    {
                        "element": "O",
                        "occu": 1
                    }
                ],
                "abc": [
                    0.72413742,
                    0.37543461,
                    0.43459205
                ],
                "xyz": [
                    2.501065049114045,
                    2.261226557393923,
                    3.8067753835182527
                ],
                "label": "O",
                "properties": {}
            },
            {
                "species": [
                    {
                        "element": "O",
                        "occu": 1
                    }
                ],
                "abc": [
                    0.33390094,
                    0.08443534,
                    0.8815677
                ],
                "xyz": [
                    -4.2016725877968675,
                    0.5085504322326208,
                    7.744146370357735
                ],
                "label": "O",
                "properties": {}
            },
            {
                "species": [
                    {
                        "element": "O",
                        "occu": 1
                    }
                ],
                "abc": [
                    0.66609906,
                    0.91556466,
                    0.1184323
                ],
                "xyz": [
                    4.512205877796867,
                    5.514406687767379,
                    1.0282619296422653
                ],
                "label": "O",
                "properties": {}
            },
            {
                "species": [
                    {
                        "element": "O",
                        "occu": 1
                    }
                ],
                "abc": [
                    0.27586258,
                    0.62456539,
                    0.56540795
                ],
                "xyz": [
                    -2.1905317591140445,
                    3.761730562606077,
                    4.9656329164817485
                ],
                "label": "O",
                "properties": {}
            },
            {
                "species": [
                    {
                        "element": "O",
                        "occu": 1
                    }
                ],
                "abc": [
                    0.72413742,
                    0.12456539,
                    0.93459205
                ],
                "xyz": [
                    -1.4295733058859552,
                    0.7502520026060768,
                    8.202725023518255
                ],
                "label": "O",
                "properties": {}
            },
            {
                "species": [
                    {
                        "element": "O",
                        "occu": 1
                    }
                ],
                "abc": [
                    0.33390094,
                    0.41556466,
                    0.3815677
                ],
                "xyz": [
                    -0.2710342327968669,
                    2.502928127767379,
                    3.3481967303577354
                ],
                "label": "O",
                "properties": {}
            }
        ]
    },
    "spacegroup": {
        "source": "spglib",
        "symbol": "P2_1/c",
        "number": 14,
        "point_group": "2/m",
        "crystal_system": "monoclinic",
        "hall": "-P 2ybc"
    },
    "dielectric": {
        "epsilon_ionic": [
            [
                9.37949143,
                3e-08,
                0.46116124
            ],
            [
                3e-08,
                8.34457255,
                -2e-08
            ],
            [
                0.46116124,
                -2e-08,
                5.2249049
            ]
        ],
        "epsilon_ionic_avg": 7.649656293333334,
        "epsilon_ionic_eig": [
            9.430064936697114,
            5.174331393302886,
            8.344572550000002
        ],
        "epsilon_electronic": [
            [
                3.23127702,
                0.0,
                0.06327567
            ],
            [
                0.0,
                3.22047164,
                0.0
            ],
            [
                0.06327663,
                0.0,
                3.51691625
            ]
        ],
        "epsilon_electronic_avg": 3.322888303333333,
        "epsilon_electronic_eig": [
            3.217887436847841,
            3.5303058331521586,
            3.22047164
        ]
    },
    "phonon": {
        "lowest_freq": -0.08735057430816318,
        "frequency": [
            -0.08735057430816318,
            -0.08046092326771734,
            -0.05934033266811817,
            0.7350199443873628,
            1.157148274132042,
            1.2850053465715967,
            1.4967850186093177,
            1.5897846322212428,
            1.6053214550055406,
            1.6231136275656237,
            1.70263929903301,
            1.7687808396743114,
            1.8261214762892997,
            1.8870971536297432,
            2.1326401948933422,
            2.140155946155148,
            2.1832989184730756,
            2.251774193198076,
            2.287954513672784,
            2.3170849288214344,
            2.3644553641851074,
            2.532883462612624,
            2.536027224985097,
            2.5919506110099375,
            2.78888223209443,
            3.060549152594945,
            3.0611923648877446,
            3.511142427834209,
            3.668097746618981,
            3.7030696958566027,
            3.8745034745888347,
            4.391407109661133,
            4.491505398073087,
            4.836747473262105,
            5.125637277991274,
            5.234505607910238,
            5.30026125391435,
            6.045501255552702,
            9.097748110869864,
            9.159202680854026,
            12.692515494351085,
            12.711907461842792,
            12.955488923218853,
            13.111789533674216,
            15.208200441559356,
            15.231185260447432,
            17.619291272552154,
            17.698167264691804,
            18.017563134764647,
            18.190691210675002,
            19.383621014078635,
            19.389617488502875,
            20.068354265756923,
            20.10400496135179,
            25.298923755672774,
            25.71556645024299,
            29.419551746780744,
            29.742535574036363,
            33.37439238966536,
            33.650987085260994
        ]
    },
    "born_effective_charge": {
        "avg_abs_trace": 1.600910666666667,
        "tensors": [
            [
                [
                    1.48713,
                    -0.03002,
                    0.07693
                ],
                [
                    -0.03578,
                    1.1383,
                    -0.08474
                ],
                [
                    0.05756,
                    -0.0626,
                    1.37709
                ]
            ],
            [
                [
                    1.0536,
                    0.01012,
                    -0.08048
                ],
                [
                    0.00542,
                    1.54209,
                    -0.01151
                ],
                [
                    -0.06031,
                    -0.03369,
                    1.46267
                ]
            ],
            [
                [
                    1.05363,
                    -0.01003,
                    -0.08051
                ],
                [
                    -0.00542,
                    1.54209,
                    0.01151
                ],
                [
                    -0.06029,
                    0.03361,
                    1.46265
                ]
            ],
            [
                [
                    1.48716,
                    0.02999,
                    0.0769
                ],
                [
                    0.03578,
                    1.1383,
                    0.08474
                ],
                [
                    0.05755,
                    0.06262,
                    1.37714
                ]
            ],
            [
                [
                    1.48713,
                    0.03002,
                    0.07693
                ],
                [
                    0.03577,
                    1.13815,
                    0.08444
                ],
                [
                    0.05756,
                    0.0626,
                    1.37709
                ]
            ],
            [
                [
                    1.0536,
                    -0.01012,
                    -0.08048
                ],
                [
                    -0.00492,
                    1.54223,
                    0.01053
                ],
                [
                    -0.06031,
                    0.03369,
                    1.46267
                ]
            ],
            [
                [
                    1.05363,
                    0.01003,
                    -0.08051
                ],
                [
                    0.00492,
                    1.54223,
                    -0.01053
                ],
                [
                    -0.06029,
                    -0.03361,
                    1.46265
                ]
            ],
            [
                [
                    1.48716,
                    -0.02999,
                    0.0769
                ],
                [
                    -0.03577,
                    1.13815,
                    -0.08444
                ],
                [
                    0.05755,
                    -0.06262,
                    1.37714
                ]
            ],
            [
                [
                    1.96101,
                    -0.33577,
                    -0.05826
                ],
                [
                    -0.29895,
                    0.67851,
                    0.45278
                ],
                [
                    -0.06155,
                    0.44389,
                    1.30649
                ]
            ],
            [
                [
                    1.96099,
                    0.33578,
                    -0.0583
                ],
                [
                    0.29895,
                    0.67851,
                    -0.45278
                ],
                [
                    -0.06153,
                    -0.44393,
                    1.30655
                ]
            ],
            [
                [
                    1.96101,
                    0.33577,
                    -0.05826
                ],
                [
                    0.29853,
                    0.67827,
                    -0.45272
                ],
                [
                    -0.06155,
                    -0.44389,
                    1.30649
                ]
            ],
            [
                [
                    1.96099,
                    -0.33578,
                    -0.0583
                ],
                [
                    -0.29853,
                    0.67827,
                    0.45272
                ],
                [
                    -0.06153,
                    0.44393,
                    1.30655
                ]
            ],
            [
                [
                    -2.2221,
                    0.09477,
                    -0.02583
                ],
                [
                    0.06917,
                    -1.42154,
                    -0.43159
                ],
                [
                    0.01114,
                    -0.40662,
                    -2.04458
                ]
            ],
            [
                [
                    -2.27965,
                    -0.14229,
                    0.08769
                ],
                [
                    -0.14022,
                    -1.9371,
                    0.17072
                ],
                [
                    0.05308,
                    0.15554,
                    -2.10172
                ]
            ],
            [
                [
                    -2.27965,
                    0.14228,
                    0.08763
                ],
                [
                    0.14022,
                    -1.9371,
                    -0.17072
                ],
                [
                    0.05316,
                    -0.1555,
                    -2.10168
                ]
            ],
            [
                [
                    -2.22212,
                    -0.09478,
                    -0.02578
                ],
                [
                    -0.06917,
                    -1.42154,
                    0.43159
                ],
                [
                    0.01118,
                    0.40665,
                    -2.0446
                ]
            ],
            [
                [
                    -2.2221,
                    -0.09477,
                    -0.02583
                ],
                [
                    -0.06907,
                    -1.42156,
                    0.43176
                ],
                [
                    0.01114,
                    0.40662,
                    -2.04458
                ]
            ],
            [
                [
                    -2.27965,
                    0.14229,
                    0.08769
                ],
                [
                    0.13942,
                    -1.93736,
                    -0.16959
                ],
                [
                    0.05308,
                    -0.15554,
                    -2.10172
                ]
            ],
            [
                [
                    -2.27965,
                    -0.14228,
                    0.08763
                ],
                [
                    -0.13942,
                    -1.93736,
                    0.16959
                ],
                [
                    0.05316,
                    0.1555,
                    -2.10168
                ]
            ],
            [
                [
                    -2.22212,
                    0.09478,
                    -0.02578
                ],
                [
                    0.06907,
                    -1.42156,
                    -0.43176
                ],
                [
                    0.01118,
                    -0.40665,
                    -2.0446
                ]
            ]
        ]
    },
    "band_gap": 2.8179,
    "is_direct": false,
    "formula": "Cs2BeO2"
}