{
    "mp_id": "mp-755950",
    "nelements": 3,
    "nsites": 18,
    "elements": [
        "Ba",
        "O",
        "Sc"
    ],
    "structure": {
        "@module": "pymatgen.core.structure",
        "@class": "Structure",
        "charge": null,
        "lattice": {
            "matrix": [
                [
                    5.93625205,
                    0.0,
                    0.0
                ],
                [
                    0.0,
                    11.74600374,
                    0.0
                ],
                [
                    0.0,
                    0.0,
                    3.97675998
                ]
            ],
            "a": 5.93625205,
            "b": 11.74600374,
            "c": 3.97675998,
            "alpha": 90.0,
            "beta": 90.0,
            "gamma": 90.0,
            "volume": 277.28849269971823
        },
        "sites": [
            {
                "species": [
                    {
                        "element": "Ba",
                        "occu": 1
                    }
                ],
                "abc": [
                    0.2332213,
                    0.87256259,
                    0.5
                ],
                "xyz": [
                    1.384460420228665,
                    10.249123445524088,
                    1.98837999
                ],
                "label": "Ba",
                "properties": {}
            },
            {
                "species": [
                    {
                        "element": "Ba",
                        "occu": 1
                    }
                ],
                "abc": [
                    0.2667787,
                    0.37256259,
                    0.5
                ],
                "xyz": [
                    1.583665604771335,
                    4.376121575524087,
                    1.98837999
                ],
                "label": "Ba",
                "properties": {}
            },
            {
                "species": [
                    {
                        "element": "Ba",
                        "occu": 1
                    }
                ],
                "abc": [
                    0.7332213,
                    0.62743741,
                    0.5
                ],
                "xyz": [
                    4.352586445228665,
                    7.369882164475913,
                    1.98837999
                ],
                "label": "Ba",
                "properties": {}
            },
            {
                "species": [
                    {
                        "element": "Ba",
                        "occu": 1
                    }
                ],
                "abc": [
                    0.7667787,
                    0.12743741,
                    0.5
                ],
                "xyz": [
                    4.551791629771335,
                    1.4968802944759134,
                    1.98837999
                ],
                "label": "Ba",
                "properties": {}
            },
            {
                "species": [
                    {
                        "element": "Sc",
                        "occu": 1
                    }
                ],
                "abc": [
                    0.26322189,
                    0.63191802,
                    0.0
                ],
                "xyz": [
                    1.5625514841173747,
                    7.422511426293395,
                    0.0
                ],
                "label": "Sc",
                "properties": {}
            },
            {
                "species": [
                    {
                        "element": "Sc",
                        "occu": 1
                    }
                ],
                "abc": [
                    0.23677811,
                    0.13191802,
                    0.0
                ],
                "xyz": [
                    1.4055745408826257,
                    1.549509556293395,
                    0.0
                ],
                "label": "Sc",
                "properties": {}
            },
            {
                "species": [
                    {
                        "element": "Sc",
                        "occu": 1
                    }
                ],
                "abc": [
                    0.76322189,
                    0.86808198,
                    0.0
                ],
                "xyz": [
                    4.530677509117375,
                    10.196494183706607,
                    0.0
                ],
                "label": "Sc",
                "properties": {}
            },
            {
                "species": [
                    {
                        "element": "Sc",
                        "occu": 1
                    }
                ],
                "abc": [
                    0.73677811,
                    0.36808198,
                    0.0
                ],
                "xyz": [
                    4.373700565882626,
                    4.3234923137066055,
                    0.0
                ],
                "label": "Sc",
                "properties": {}
            },
            {
                "species": [
                    {
                        "element": "O",
                        "occu": 1
                    }
                ],
                "abc": [
                    0.0,
                    0.0,
                    0.0
                ],
                "xyz": [
                    0.0,
                    0.0,
                    0.0
                ],
                "label": "O",
                "properties": {}
            },
            {
                "species": [
                    {
                        "element": "O",
                        "occu": 1
                    }
                ],
                "abc": [
                    0.01855994,
                    0.25751704,
                    0.0
                ],
                "xyz": [
                    0.11017648187287701,
                    3.0247961149537295,
                    0.0
                ],
                "label": "O",
                "properties": {}
            },
            {
                "species": [
                    {
                        "element": "O",
                        "occu": 1
                    }
                ],
                "abc": [
                    0.19225206,
                    0.59878617,
                    0.5
                ],
                "xyz": [
                    1.141256685291723,
                    7.033344592280276,
                    1.98837999
                ],
                "label": "O",
                "properties": {}
            },
            {
                "species": [
                    {
                        "element": "O",
                        "occu": 1
                    }
                ],
                "abc": [
                    0.30774794,
                    0.09878617,
                    0.5
                ],
                "xyz": [
                    1.8268693397082771,
                    1.160342722280276,
                    1.98837999
                ],
                "label": "O",
                "properties": {}
            },
            {
                "species": [
                    {
                        "element": "O",
                        "occu": 1
                    }
                ],
                "abc": [
                    0.48144006,
                    0.75751704,
                    0.0
                ],
                "xyz": [
                    2.857949543127123,
                    8.89779798495373,
                    0.0
                ],
                "label": "O",
                "properties": {}
            },
            {
                "species": [
                    {
                        "element": "O",
                        "occu": 1
                    }
                ],
                "abc": [
                    0.5,
                    0.5,
                    0.0
                ],
                "xyz": [
                    2.968126025,
                    5.87300187,
                    0.0
                ],
                "label": "O",
                "properties": {}
            },
            {
                "species": [
                    {
                        "element": "O",
                        "occu": 1
                    }
                ],
                "abc": [
                    0.51855994,
                    0.24248296,
                    0.0
                ],
                "xyz": [
                    3.0783025068728773,
                    2.8482057550462705,
                    0.0
                ],
                "label": "O",
                "properties": {}
            },
            {
                "species": [
                    {
                        "element": "O",
                        "occu": 1
                    }
                ],
                "abc": [
                    0.69225206,
                    0.90121383,
                    0.5
                ],
                "xyz": [
                    4.109382710291722,
                    10.585661017719724,
                    1.98837999
                ],
                "label": "O",
                "properties": {}
            },
            {
                "species": [
                    {
                        "element": "O",
                        "occu": 1
                    }
                ],
                "abc": [
                    0.80774794,
                    0.40121383,
                    0.5
                ],
                "xyz": [
                    4.794995364708278,
                    4.712659147719725,
                    1.98837999
                ],
                "label": "O",
                "properties": {}
            },
            {
                "species": [
                    {
                        "element": "O",
                        "occu": 1
                    }
                ],
                "abc": [
                    0.98144006,
                    0.74248296,
                    0.0
                ],
                "xyz": [
                    5.826075568127123,
                    8.72120762504627,
                    0.0
                ],
                "label": "O",
                "properties": {}
            }
        ]
    },
    "spacegroup": {
        "source": "spglib",
        "symbol": "Pbam",
        "number": 55,
        "point_group": "mmm",
        "crystal_system": "orthorhombic",
        "hall": "-P 2 2ab"
    },
    "dielectric": {
        "epsilon_ionic": [
            [
                14.06784306,
                1e-08,
                2.7e-07
            ],
            [
                1e-08,
                13.66036572,
                5e-08
            ],
            [
                2.7e-07,
                5e-08,
                11.42276792
            ]
        ],
        "epsilon_ionic_avg": 13.050325566666672,
        "epsilon_ionic_eig": [
            14.067843060000028,
            11.422767919999984,
            13.660365720000001
        ],
        "epsilon_electronic": [
            [
                4.46538614,
                -0.0,
                0.0
            ],
            [
                0.0,
                4.57178572,
                0.0
            ],
            [
                0.0,
                0.0,
                4.53292778
            ]
        ],
        "epsilon_electronic_avg": 4.523366546666667,
        "epsilon_electronic_eig": [
            4.46538614,
            4.57178572,
            4.53292778
        ]
    },
    "phonon": {
        "lowest_freq": -0.0674386090332052,
        "frequency": [
            -0.0674386090332052,
            -0.04949708256571176,
            -0.02062504821147612,
            2.2468688851658567,
            2.335149998592062,
            2.5962452676849317,
            2.6645035464177016,
            2.8659546344587006,
            2.9789080732020596,
            3.0229925400154047,
            3.02710685370275,
            3.6182535928061372,
            4.380839845821207,
            4.413179404056057,
            4.812280344975347,
            4.857845336683093,
            5.279888620135726,
            5.42306515161625,
            5.528759634233674,
            5.915432092612033,
            5.957256160693923,
            5.969472080952548,
            6.232342007436751,
            6.253830952459756,
            7.110741724282365,
            7.4445383605735715,
            7.697129785882106,
            7.757389032316015,
            8.020058450261974,
            8.212120938373117,
            9.009966034169288,
            9.017068551105439,
            9.09766438943628,
            9.174754225432096,
            9.434432077790643,
            9.538068307375761,
            9.544165210427138,
            10.745165544953288,
            11.01373549751749,
            11.408536492272471,
            11.771975084317365,
            12.065269448002036,
            12.205671897939109,
            13.019988587590143,
            13.780766309590305,
            13.788789110407004,
            14.092480628011142,
            14.12569720967065,
            14.692705819640091,
            17.286561417749542,
            17.42153304392923,
            18.030954033184376,
            21.46534252847126,
            22.177805443845994
        ]
    },
    "born_effective_charge": {
        "avg_abs_trace": 2.8579051851851855,
        "tensors": [
            [
                [
                    2.70502,
                    -0.25364,
                    0.0
                ],
                [
                    -0.27057,
                    2.77025,
                    0.0
                ],
                [
                    -6e-05,
                    1e-05,
                    2.39517
                ]
            ],
            [
                [
                    2.70556,
                    0.25397,
                    0.0
                ],
                [
                    0.27057,
                    2.77025,
                    0.0
                ],
                [
                    6e-05,
                    1e-05,
                    2.39517
                ]
            ],
            [
                [
                    2.70502,
                    0.25364,
                    0.0
                ],
                [
                    0.2707,
                    2.77035,
                    0.0
                ],
                [
                    -6e-05,
                    -1e-05,
                    2.39517
                ]
            ],
            [
                [
                    2.70556,
                    -0.25397,
                    0.0
                ],
                [
                    -0.2707,
                    2.77035,
                    0.0
                ],
                [
                    6e-05,
                    -1e-05,
                    2.39517
                ]
            ],
            [
                [
                    3.5857,
                    -0.59847,
                    0.0
                ],
                [
                    -0.8227,
                    3.66052,
                    0.0
                ],
                [
                    -0.00064,
                    -0.00059,
                    4.17405
                ]
            ],
            [
                [
                    3.58546,
                    0.59856,
                    0.0
                ],
                [
                    0.8227,
                    3.66052,
                    0.0
                ],
                [
                    0.00064,
                    -0.00059,
                    4.17405
                ]
            ],
            [
                [
                    3.5857,
                    0.59847,
                    0.0
                ],
                [
                    0.82277,
                    3.66042,
                    0.0
                ],
                [
                    -0.00064,
                    0.00059,
                    4.17405
                ]
            ],
            [
                [
                    3.58546,
                    -0.59856,
                    0.0
                ],
                [
                    -0.82277,
                    3.66042,
                    0.0
                ],
                [
                    0.00064,
                    0.00059,
                    4.17405
                ]
            ],
            [
                [
                    -2.46934,
                    -0.65465,
                    0.0
                ],
                [
                    -0.95374,
                    -3.24485,
                    0.0
                ],
                [
                    0.0,
                    0.0,
                    -2.13426
                ]
            ],
            [
                [
                    -2.92394,
                    0.82191,
                    0.0
                ],
                [
                    0.75688,
                    -2.66248,
                    0.0
                ],
                [
                    8e-05,
                    -0.00014,
                    -1.89245
                ]
            ],
            [
                [
                    -2.13218,
                    0.06778,
                    0.0
                ],
                [
                    0.14349,
                    -2.14579,
                    0.0
                ],
                [
                    0.00116,
                    0.00114,
                    -3.60964
                ]
            ],
            [
                [
                    -2.13233,
                    -0.06711,
                    0.0
                ],
                [
                    -0.14349,
                    -2.14579,
                    0.0
                ],
                [
                    -0.00116,
                    0.00114,
                    -3.60964
                ]
            ],
            [
                [
                    -2.92395,
                    -0.82186,
                    0.0
                ],
                [
                    -0.75688,
                    -2.66248,
                    0.0
                ],
                [
                    -8e-05,
                    -0.00014,
                    -1.89245
                ]
            ],
            [
                [
                    -2.46934,
                    0.65465,
                    0.0
                ],
                [
                    0.95374,
                    -3.24485,
                    0.0
                ],
                [
                    0.0,
                    0.0,
                    -2.13426
                ]
            ],
            [
                [
                    -2.92394,
                    -0.82191,
                    0.0
                ],
                [
                    -0.7568,
                    -2.66255,
                    0.0
                ],
                [
                    8e-05,
                    0.00014,
                    -1.89245
                ]
            ],
            [
                [
                    -2.13218,
                    -0.06778,
                    0.0
                ],
                [
                    -0.14337,
                    -2.14587,
                    0.0
                ],
                [
                    0.00116,
                    -0.00114,
                    -3.60964
                ]
            ],
            [
                [
                    -2.13233,
                    0.06711,
                    0.0
                ],
                [
                    0.14337,
                    -2.14587,
                    0.0
                ],
                [
                    -0.00116,
                    -0.00114,
                    -3.60964
                ]
            ],
            [
                [
                    -2.92395,
                    0.82186,
                    0.0
                ],
                [
                    0.7568,
                    -2.66255,
                    0.0
                ],
                [
                    -8e-05,
                    0.00014,
                    -1.89245
                ]
            ]
        ]
    },
    "band_gap": 2.7150000000000003,
    "is_direct": false,
    "formula": "Ba2Sc2O5"
}