{
    "mp_id": "mp-754246",
    "nelements": 3,
    "nsites": 10,
    "elements": [
        "O",
        "Sn",
        "Ti"
    ],
    "structure": {
        "@module": "pymatgen.core.structure",
        "@class": "Structure",
        "charge": null,
        "lattice": {
            "matrix": [
                [
                    2.56723485,
                    1.48219406,
                    6.80789389
                ],
                [
                    -2.5672349,
                    1.48219398,
                    6.80789389
                ],
                [
                    5e-08,
                    -2.96438704,
                    6.80789389
                ]
            ],
            "a": 7.425295497423193,
            "b": 7.42529549874115,
            "c": 7.4252952628443865,
            "alpha": 40.45416598595513,
            "beta": 40.454165942680945,
            "gamma": 40.454166566452464,
            "volume": 155.42990852329797
        },
        "sites": [
            {
                "species": [
                    {
                        "element": "Ti",
                        "occu": 1
                    }
                ],
                "abc": [
                    0.33286579,
                    0.33286579,
                    0.33286579
                ],
                "xyz": [
                    1.9771279934793083e-16,
                    3.328657900425469e-07,
                    6.79834493379307
                ],
                "label": "Ti",
                "properties": {}
            },
            {
                "species": [
                    {
                        "element": "Ti",
                        "occu": 1
                    }
                ],
                "abc": [
                    0.66713421,
                    0.66713421,
                    0.66713421
                ],
                "xyz": [
                    2.1718304608937545e-16,
                    6.671342098751865e-07,
                    13.625336736206929
                ],
                "label": "Ti",
                "properties": {}
            },
            {
                "species": [
                    {
                        "element": "Sn",
                        "occu": 1
                    }
                ],
                "abc": [
                    0.10754756,
                    0.10754756,
                    0.10754756
                ],
                "xyz": [
                    1.2663270774446736e-17,
                    1.0754756002429033e-07,
                    2.1965171298252253
                ],
                "label": "Sn",
                "properties": {}
            },
            {
                "species": [
                    {
                        "element": "Sn",
                        "occu": 1
                    }
                ],
                "abc": [
                    0.89245244,
                    0.89245244,
                    0.89245244
                ],
                "xyz": [
                    -4.185662939693878e-17,
                    8.924524403930434e-07,
                    18.227164540174773
                ],
                "label": "Sn",
                "properties": {}
            },
            {
                "species": [
                    {
                        "element": "O",
                        "occu": 1
                    }
                ],
                "abc": [
                    0.69742075,
                    0.40802466,
                    0.05373856
                ],
                "xyz": [
                    0.7429477099874318,
                    1.4791826969020296,
                    7.891601466748943
                ],
                "label": "O",
                "properties": {}
            },
            {
                "species": [
                    {
                        "element": "O",
                        "occu": 1
                    }
                ],
                "abc": [
                    0.05373856,
                    0.69742075,
                    0.40802466
                ],
                "xyz": [
                    -1.6524833649621262,
                    -0.09617920250236778,
                    7.891601466748943
                ],
                "label": "O",
                "properties": {}
            },
            {
                "species": [
                    {
                        "element": "O",
                        "occu": 1
                    }
                ],
                "abc": [
                    0.59197534,
                    0.94626144,
                    0.30257925
                ],
                "xyz": [
                    -0.9095356549746942,
                    1.3830033352156914,
                    12.532080203251057
                ],
                "label": "O",
                "properties": {}
            },
            {
                "species": [
                    {
                        "element": "O",
                        "occu": 1
                    }
                ],
                "abc": [
                    0.40802466,
                    0.05373856,
                    0.69742075
                ],
                "xyz": [
                    0.9095356549746946,
                    -1.383002335215692,
                    7.891601466748943
                ],
                "label": "O",
                "properties": {}
            },
            {
                "species": [
                    {
                        "element": "O",
                        "occu": 1
                    }
                ],
                "abc": [
                    0.94626144,
                    0.30257925,
                    0.59197534
                ],
                "xyz": [
                    1.652483364962126,
                    0.09618020250236792,
                    12.532080203251056
                ],
                "label": "O",
                "properties": {}
            },
            {
                "species": [
                    {
                        "element": "O",
                        "occu": 1
                    }
                ],
                "abc": [
                    0.30257925,
                    0.59197534,
                    0.94626144
                ],
                "xyz": [
                    -0.7429477099874311,
                    -1.4791816969020297,
                    12.532080203251057
                ],
                "label": "O",
                "properties": {}
            }
        ]
    },
    "spacegroup": {
        "source": "spglib",
        "symbol": "R-3",
        "number": 148,
        "point_group": "-3",
        "crystal_system": "trigonal",
        "hall": "-R 3"
    },
    "dielectric": {
        "epsilon_ionic": [
            [
                13.75910799,
                1.01e-06,
                -4.01e-06
            ],
            [
                1.01e-06,
                13.75914909,
                -4.81e-06
            ],
            [
                -4.01e-06,
                -4.81e-06,
                4.59723566
            ]
        ],
        "epsilon_ionic_avg": 10.70516424666667,
        "epsilon_ionic_eig": [
            4.59723565999572,
            13.759107965196677,
            13.75914911480761
        ],
        "epsilon_electronic": [
            [
                6.48747803,
                -2.78e-06,
                0.0
            ],
            [
                2.78e-06,
                6.4874767,
                2.6e-07
            ],
            [
                0.0,
                2.6e-07,
                5.38575379
            ]
        ],
        "epsilon_electronic_avg": 6.1202361733333355,
        "epsilon_electronic_eig": [
            6.487477365000034,
            6.487477365000034,
            5.385753789999939
        ]
    },
    "phonon": {
        "lowest_freq": -0.01891199997327983,
        "frequency": [
            -0.01891199997327983,
            -0.015490476890555079,
            -0.01549047530492188,
            3.4228932155536547,
            3.422893558281429,
            4.811275007445892,
            4.823885109059793,
            5.280677786564927,
            5.751248313773145,
            5.7512488662100045,
            6.208525047539638,
            6.208525244365877,
            8.827707721751091,
            8.827708206248577,
            10.265539031298376,
            10.523620741600125,
            12.513315688619262,
            12.513316723773073,
            13.260511349931043,
            13.260511995004537,
            13.71126052511585,
            13.71126130940592,
            14.02236564136172,
            14.668125989451033,
            14.668126430993693,
            17.042424746228605,
            17.042425176449303,
            18.28357738507321,
            18.63592582554297,
            20.448584131919237
        ]
    },
    "born_effective_charge": {
        "avg_abs_trace": 3.350250333333333,
        "tensors": [
            [
                [
                    6.48981,
                    -0.09609,
                    3e-05
                ],
                [
                    0.09611,
                    6.48981,
                    1e-05
                ],
                [
                    0.0,
                    0.0,
                    3.26447
                ]
            ],
            [
                [
                    6.48977,
                    -0.09615,
                    -4e-05
                ],
                [
                    0.09613,
                    6.48979,
                    -1e-05
                ],
                [
                    0.0,
                    0.0,
                    3.26439
                ]
            ],
            [
                [
                    2.84582,
                    -0.014,
                    -2e-05
                ],
                [
                    0.01401,
                    2.84584,
                    1e-05
                ],
                [
                    0.0,
                    0.0,
                    3.19117
                ]
            ],
            [
                [
                    2.84587,
                    -0.01418,
                    2e-05
                ],
                [
                    0.01417,
                    2.84584,
                    -2e-05
                ],
                [
                    0.0,
                    0.0,
                    3.19116
                ]
            ],
            [
                [
                    -2.95306,
                    0.05508,
                    -1.76957
                ],
                [
                    -0.01838,
                    -3.27077,
                    -0.1147
                ],
                [
                    -1.33585,
                    -0.05532,
                    -2.1519
                ]
            ],
            [
                [
                    -3.1754,
                    -0.11,
                    0.98414
                ],
                [
                    -0.18351,
                    -3.04834,
                    -1.47512
                ],
                [
                    0.71584,
                    -1.12922,
                    -2.1519
                ]
            ],
            [
                [
                    -3.20726,
                    0.16518,
                    0.78556
                ],
                [
                    0.09172,
                    -3.01648,
                    1.58994
                ],
                [
                    0.61999,
                    1.18456,
                    -2.15183
                ]
            ],
            [
                [
                    -3.2072,
                    0.1651,
                    0.78544
                ],
                [
                    0.09168,
                    -3.01655,
                    1.58983
                ],
                [
                    0.62001,
                    1.18454,
                    -2.1519
                ]
            ],
            [
                [
                    -3.17542,
                    -0.11008,
                    0.98418
                ],
                [
                    -0.18357,
                    -3.04833,
                    -1.47525
                ],
                [
                    0.71586,
                    -1.12921,
                    -2.15183
                ]
            ],
            [
                [
                    -2.95294,
                    0.05513,
                    -1.76973
                ],
                [
                    -0.01835,
                    -3.27083,
                    -0.11469
                ],
                [
                    -1.33585,
                    -0.05535,
                    -2.15183
                ]
            ]
        ]
    },
    "band_gap": 1.1759999999999997,
    "is_direct": false,
    "formula": "TiSnO3"
}