{
    "mp_id": "mp-7205",
    "nelements": 4,
    "nsites": 28,
    "elements": [
        "In",
        "Li",
        "O",
        "Si"
    ],
    "structure": {
        "@module": "pymatgen.core.structure",
        "@class": "Structure",
        "charge": null,
        "lattice": {
            "matrix": [
                [
                    10.57864057,
                    0.0,
                    0.0
                ],
                [
                    0.0,
                    6.09929933,
                    0.0
                ],
                [
                    0.0,
                    0.0,
                    4.87069855
                ]
            ],
            "a": 10.57864057,
            "b": 6.09929933,
            "c": 4.87069855,
            "alpha": 90.0,
            "beta": 90.0,
            "gamma": 90.0,
            "volume": 314.2686503596509
        },
        "sites": [
            {
                "species": [
                    {
                        "element": "Li",
                        "occu": 1
                    }
                ],
                "abc": [
                    0.0,
                    0.0,
                    0.0
                ],
                "xyz": [
                    0.0,
                    0.0,
                    0.0
                ],
                "label": "Li",
                "properties": {}
            },
            {
                "species": [
                    {
                        "element": "Li",
                        "occu": 1
                    }
                ],
                "abc": [
                    0.5,
                    0.0,
                    0.5
                ],
                "xyz": [
                    5.289320285,
                    0.0,
                    2.435349275
                ],
                "label": "Li",
                "properties": {}
            },
            {
                "species": [
                    {
                        "element": "Li",
                        "occu": 1
                    }
                ],
                "abc": [
                    0.0,
                    0.5,
                    0.0
                ],
                "xyz": [
                    0.0,
                    3.049649665,
                    0.0
                ],
                "label": "Li",
                "properties": {}
            },
            {
                "species": [
                    {
                        "element": "Li",
                        "occu": 1
                    }
                ],
                "abc": [
                    0.5,
                    0.5,
                    0.5
                ],
                "xyz": [
                    5.289320285,
                    3.049649665,
                    2.435349275
                ],
                "label": "Li",
                "properties": {}
            },
            {
                "species": [
                    {
                        "element": "In",
                        "occu": 1
                    }
                ],
                "abc": [
                    0.27464762,
                    0.75,
                    0.02118232
                ],
                "xyz": [
                    2.905398455385943,
                    4.5744744975,
                    0.103172695309636
                ],
                "label": "In",
                "properties": {}
            },
            {
                "species": [
                    {
                        "element": "In",
                        "occu": 1
                    }
                ],
                "abc": [
                    0.77464762,
                    0.75,
                    0.47881768
                ],
                "xyz": [
                    8.194718740385943,
                    4.5744744975,
                    2.332176579690364
                ],
                "label": "In",
                "properties": {}
            },
            {
                "species": [
                    {
                        "element": "In",
                        "occu": 1
                    }
                ],
                "abc": [
                    0.72535238,
                    0.25,
                    0.97881768
                ],
                "xyz": [
                    7.673242114614056,
                    1.5248248325,
                    4.767525854690365
                ],
                "label": "In",
                "properties": {}
            },
            {
                "species": [
                    {
                        "element": "In",
                        "occu": 1
                    }
                ],
                "abc": [
                    0.22535238,
                    0.25,
                    0.52118232
                ],
                "xyz": [
                    2.3839218296140565,
                    1.5248248325,
                    2.538521970309636
                ],
                "label": "In",
                "properties": {}
            },
            {
                "species": [
                    {
                        "element": "Si",
                        "occu": 1
                    }
                ],
                "abc": [
                    0.08728614,
                    0.75,
                    0.57714962
                ],
                "xyz": [
                    0.9233687018026997,
                    4.5744744975,
                    2.8111218172670513
                ],
                "label": "Si",
                "properties": {}
            },
            {
                "species": [
                    {
                        "element": "Si",
                        "occu": 1
                    }
                ],
                "abc": [
                    0.58728614,
                    0.75,
                    0.92285038
                ],
                "xyz": [
                    6.212688986802699,
                    4.5744744975,
                    4.494926007732949
                ],
                "label": "Si",
                "properties": {}
            },
            {
                "species": [
                    {
                        "element": "Si",
                        "occu": 1
                    }
                ],
                "abc": [
                    0.91271386,
                    0.25,
                    0.42285038
                ],
                "xyz": [
                    9.6552718681973,
                    1.5248248325,
                    2.0595767327329493
                ],
                "label": "Si",
                "properties": {}
            },
            {
                "species": [
                    {
                        "element": "Si",
                        "occu": 1
                    }
                ],
                "abc": [
                    0.41271386,
                    0.25,
                    0.07714962
                ],
                "xyz": [
                    4.3659515831973,
                    1.5248248325,
                    0.37577254226705104
                ],
                "label": "Si",
                "properties": {}
            },
            {
                "species": [
                    {
                        "element": "O",
                        "occu": 1
                    }
                ],
                "abc": [
                    0.66171734,
                    0.54140865,
                    0.7690845
                ],
                "xyz": [
                    7.000069898796483,
                    3.3022134162012047,
                    3.7459787589774747
                ],
                "label": "O",
                "properties": {}
            },
            {
                "species": [
                    {
                        "element": "O",
                        "occu": 1
                    }
                ],
                "abc": [
                    0.33828266,
                    0.45859135,
                    0.2309155
                ],
                "xyz": [
                    3.578570671203516,
                    2.7970859137987953,
                    1.124719791022525
                ],
                "label": "O",
                "properties": {}
            },
            {
                "species": [
                    {
                        "element": "O",
                        "occu": 1
                    }
                ],
                "abc": [
                    0.16171734,
                    0.54140865,
                    0.7309155
                ],
                "xyz": [
                    1.7107496137964835,
                    3.3022134162012047,
                    3.5600690660225256
                ],
                "label": "O",
                "properties": {}
            },
            {
                "species": [
                    {
                        "element": "O",
                        "occu": 1
                    }
                ],
                "abc": [
                    0.66171734,
                    0.95859135,
                    0.7690845
                ],
                "xyz": [
                    7.000069898796483,
                    5.846735578798795,
                    3.7459787589774747
                ],
                "label": "O",
                "properties": {}
            },
            {
                "species": [
                    {
                        "element": "O",
                        "occu": 1
                    }
                ],
                "abc": [
                    0.83828266,
                    0.04140865,
                    0.2690845
                ],
                "xyz": [
                    8.867890956203516,
                    0.2525637512012045,
                    1.310629483977475
                ],
                "label": "O",
                "properties": {}
            },
            {
                "species": [
                    {
                        "element": "O",
                        "occu": 1
                    }
                ],
                "abc": [
                    0.90478938,
                    0.25,
                    0.7547041
                ],
                "xyz": [
                    9.571441642573145,
                    1.5248248325,
                    3.675936165549055
                ],
                "label": "O",
                "properties": {}
            },
            {
                "species": [
                    {
                        "element": "O",
                        "occu": 1
                    }
                ],
                "abc": [
                    0.83828266,
                    0.45859135,
                    0.2690845
                ],
                "xyz": [
                    8.867890956203516,
                    2.7970859137987953,
                    1.310629483977475
                ],
                "label": "O",
                "properties": {}
            },
            {
                "species": [
                    {
                        "element": "O",
                        "occu": 1
                    }
                ],
                "abc": [
                    0.33828266,
                    0.04140865,
                    0.2309155
                ],
                "xyz": [
                    3.578570671203516,
                    0.2525637512012045,
                    1.124719791022525
                ],
                "label": "O",
                "properties": {}
            },
            {
                "species": [
                    {
                        "element": "O",
                        "occu": 1
                    }
                ],
                "abc": [
                    0.09521062,
                    0.75,
                    0.2452959
                ],
                "xyz": [
                    1.0071989274268534,
                    4.5744744975,
                    1.1947623844509452
                ],
                "label": "O",
                "properties": {}
            },
            {
                "species": [
                    {
                        "element": "O",
                        "occu": 1
                    }
                ],
                "abc": [
                    0.40478938,
                    0.25,
                    0.7452959
                ],
                "xyz": [
                    4.282121357573146,
                    1.5248248325,
                    3.6301116594509453
                ],
                "label": "O",
                "properties": {}
            },
            {
                "species": [
                    {
                        "element": "O",
                        "occu": 1
                    }
                ],
                "abc": [
                    0.94579057,
                    0.75,
                    0.71132467
                ],
                "xyz": [
                    10.005178494525424,
                    4.5744744975,
                    3.4646480387482286
                ],
                "label": "O",
                "properties": {}
            },
            {
                "species": [
                    {
                        "element": "O",
                        "occu": 1
                    }
                ],
                "abc": [
                    0.59521062,
                    0.75,
                    0.2547041
                ],
                "xyz": [
                    6.296519212426853,
                    4.5744744975,
                    1.240586890549055
                ],
                "label": "O",
                "properties": {}
            },
            {
                "species": [
                    {
                        "element": "O",
                        "occu": 1
                    }
                ],
                "abc": [
                    0.44579057,
                    0.75,
                    0.78867533
                ],
                "xyz": [
                    4.7158582095254244,
                    4.5744744975,
                    3.8413997862517717
                ],
                "label": "O",
                "properties": {}
            },
            {
                "species": [
                    {
                        "element": "O",
                        "occu": 1
                    }
                ],
                "abc": [
                    0.55420943,
                    0.25,
                    0.21132467
                ],
                "xyz": [
                    5.862782360474575,
                    1.5248248325,
                    1.0292987637482285
                ],
                "label": "O",
                "properties": {}
            },
            {
                "species": [
                    {
                        "element": "O",
                        "occu": 1
                    }
                ],
                "abc": [
                    0.05420943,
                    0.25,
                    0.28867533
                ],
                "xyz": [
                    0.5734620754745751,
                    1.5248248325,
                    1.4060505112517716
                ],
                "label": "O",
                "properties": {}
            },
            {
                "species": [
                    {
                        "element": "O",
                        "occu": 1
                    }
                ],
                "abc": [
                    0.16171734,
                    0.95859135,
                    0.7309155
                ],
                "xyz": [
                    1.7107496137964835,
                    5.846735578798795,
                    3.5600690660225256
                ],
                "label": "O",
                "properties": {}
            }
        ]
    },
    "spacegroup": {
        "source": "spglib",
        "symbol": "Pnma",
        "number": 62,
        "point_group": "mmm",
        "crystal_system": "orthorhombic",
        "hall": "-P 2ac 2n"
    },
    "dielectric": {
        "epsilon_ionic": [
            [
                5.23724332,
                0.0,
                -0.0
            ],
            [
                0.0,
                7.38786787,
                -1e-08
            ],
            [
                -0.0,
                -1e-08,
                4.9735267
            ]
        ],
        "epsilon_ionic_avg": 5.86621263,
        "epsilon_ionic_eig": [
            4.9735267,
            7.38786787,
            5.23724332
        ],
        "epsilon_electronic": [
            [
                3.33987736,
                0.0,
                0.0
            ],
            [
                0.0,
                3.3011155,
                0.0
            ],
            [
                0.0,
                0.0,
                3.19209299
            ]
        ],
        "epsilon_electronic_avg": 3.2776952833333333,
        "epsilon_electronic_eig": [
            3.33987736,
            3.3011155,
            3.19209299
        ]
    },
    "phonon": {
        "lowest_freq": -0.05288633702492342,
        "frequency": [
            -0.05288633702492342,
            -0.04772415173323546,
            -0.03143498087109298,
            2.604138011175293,
            2.610690385760489,
            3.3815641418579605,
            4.057273448678868,
            4.059029019972216,
            4.387542567152906,
            4.5881828740784405,
            4.801186880067063,
            4.809586668791701,
            4.872598649797592,
            4.885451891198376,
            5.017581133549627,
            5.152617238244289,
            5.365061421026255,
            5.803060118126899,
            5.8565155373267395,
            6.13731673336055,
            6.1387306292523505,
            6.308331263979524,
            6.456349297467182,
            6.961028498647423,
            7.0902621140166096,
            7.115548042042758,
            7.121006333714686,
            7.468884858912907,
            7.703665818637401,
            7.859895189144954,
            8.308623558651519,
            8.450868671759274,
            8.489574278013695,
            8.691005989163079,
            8.928324688213563,
            8.97876144281801,
            9.384633168499121,
            9.641022829408154,
            9.810290109270746,
            10.066735345577705,
            10.399951102095633,
            10.643056796018346,
            10.703144850472816,
            10.810161998389882,
            11.108964384646303,
            11.384997761097702,
            12.311322251090852,
            12.516458060223728,
            12.919448549028052,
            13.09686722241097,
            13.13211476048718,
            13.25002623454675,
            13.536841501205295,
            13.856483442562785,
            14.053911401524823,
            14.132509504302957,
            14.150886325792722,
            14.579596616986821,
            15.0143315617422,
            15.145550069708403,
            15.491103534288989,
            15.985272147310411,
            16.15760065981889,
            16.289289218375103,
            17.925807651365943,
            17.98613005309003,
            18.417700970397444,
            18.572332180497398,
            23.337454698913156,
            23.490744930969527,
            24.372428975637902,
            24.55592276369085,
            24.56606172540012,
            24.655817300910172,
            24.741778247960237,
            24.938179501921496,
            26.068857905684595,
            26.57515394520502,
            27.000355449090346,
            27.627020596105577,
            28.539033150595777,
            28.92048100991476,
            29.13767283421213,
            30.40878785369745
        ]
    },
    "born_effective_charge": {
        "avg_abs_trace": 2.140611904761905,
        "tensors": [
            [
                [
                    1.02437,
                    -0.17689,
                    0.00905
                ],
                [
                    -0.12161,
                    1.05591,
                    0.0859
                ],
                [
                    0.00352,
                    0.12902,
                    1.25847
                ]
            ],
            [
                [
                    1.02437,
                    -0.17689,
                    -0.00905
                ],
                [
                    -0.12161,
                    1.05591,
                    -0.0859
                ],
                [
                    -0.00352,
                    -0.12902,
                    1.25847
                ]
            ],
            [
                [
                    1.02437,
                    0.17689,
                    0.00905
                ],
                [
                    0.12161,
                    1.05591,
                    -0.0859
                ],
                [
                    0.00352,
                    -0.12902,
                    1.25847
                ]
            ],
            [
                [
                    1.02437,
                    0.17689,
                    -0.00905
                ],
                [
                    0.12161,
                    1.05591,
                    0.0859
                ],
                [
                    -0.00352,
                    0.12902,
                    1.25847
                ]
            ],
            [
                [
                    3.54566,
                    -0.0,
                    -0.02305
                ],
                [
                    6e-05,
                    3.51203,
                    3e-05
                ],
                [
                    0.14963,
                    -0.0,
                    3.20015
                ]
            ],
            [
                [
                    3.54566,
                    -0.0,
                    0.02305
                ],
                [
                    6e-05,
                    3.51203,
                    -3e-05
                ],
                [
                    -0.14963,
                    -0.0,
                    3.20014
                ]
            ],
            [
                [
                    3.54571,
                    -0.0,
                    -0.02309
                ],
                [
                    -6e-05,
                    3.51203,
                    -3e-05
                ],
                [
                    0.14963,
                    -0.0,
                    3.20014
                ]
            ],
            [
                [
                    3.54571,
                    -0.0,
                    0.02309
                ],
                [
                    -6e-05,
                    3.51203,
                    3e-05
                ],
                [
                    -0.14963,
                    -0.0,
                    3.20015
                ]
            ],
            [
                [
                    3.05725,
                    -0.0,
                    -0.21101
                ],
                [
                    -0.00027,
                    2.90559,
                    -0.00022
                ],
                [
                    0.29884,
                    -0.0,
                    2.91702
                ]
            ],
            [
                [
                    3.05725,
                    -0.0,
                    0.21101
                ],
                [
                    -0.00027,
                    2.90559,
                    0.00022
                ],
                [
                    -0.29888,
                    -0.0,
                    2.91689
                ]
            ],
            [
                [
                    3.05729,
                    -0.0,
                    -0.21102
                ],
                [
                    0.00027,
                    2.90559,
                    0.00022
                ],
                [
                    0.29888,
                    -0.0,
                    2.91689
                ]
            ],
            [
                [
                    3.05729,
                    -0.0,
                    0.21102
                ],
                [
                    0.00027,
                    2.90559,
                    -0.00022
                ],
                [
                    -0.29884,
                    -0.0,
                    2.91702
                ]
            ],
            [
                [
                    -1.73861,
                    0.34486,
                    0.29661
                ],
                [
                    0.38612,
                    -2.33721,
                    0.07091
                ],
                [
                    0.30319,
                    0.11444,
                    -1.73554
                ]
            ],
            [
                [
                    -1.73855,
                    0.34481,
                    0.29657
                ],
                [
                    0.38583,
                    -2.33702,
                    0.07104
                ],
                [
                    0.30307,
                    0.1144,
                    -1.73544
                ]
            ],
            [
                [
                    -1.73861,
                    0.34486,
                    -0.29661
                ],
                [
                    0.38612,
                    -2.33721,
                    -0.07091
                ],
                [
                    -0.30307,
                    -0.1144,
                    -1.73544
                ]
            ],
            [
                [
                    -1.73861,
                    -0.34486,
                    0.29661
                ],
                [
                    -0.38583,
                    -2.33702,
                    -0.07104
                ],
                [
                    0.30319,
                    -0.11444,
                    -1.73554
                ]
            ],
            [
                [
                    -1.73855,
                    -0.34481,
                    -0.29657
                ],
                [
                    -0.38612,
                    -2.33721,
                    0.07091
                ],
                [
                    -0.30319,
                    0.11444,
                    -1.73554
                ]
            ],
            [
                [
                    -1.58487,
                    -0.0,
                    0.33779
                ],
                [
                    0.00018,
                    -1.36233,
                    -0.00016
                ],
                [
                    0.29778,
                    -0.0,
                    -2.40196
                ]
            ],
            [
                [
                    -1.73855,
                    0.34481,
                    -0.29657
                ],
                [
                    0.38583,
                    -2.33702,
                    -0.07104
                ],
                [
                    -0.30319,
                    -0.11444,
                    -1.73554
                ]
            ],
            [
                [
                    -1.73855,
                    -0.34481,
                    0.29657
                ],
                [
                    -0.38612,
                    -2.33721,
                    -0.07091
                ],
                [
                    0.30307,
                    -0.1144,
                    -1.73544
                ]
            ],
            [
                [
                    -1.58505,
                    -0.0,
                    0.33745
                ],
                [
                    -0.00018,
                    -1.36233,
                    0.00016
                ],
                [
                    0.29782,
                    -0.0,
                    -2.40215
                ]
            ],
            [
                [
                    -1.58487,
                    -0.0,
                    -0.33779
                ],
                [
                    0.00018,
                    -1.36233,
                    0.00016
                ],
                [
                    -0.29782,
                    -0.0,
                    -2.40215
                ]
            ],
            [
                [
                    -2.56512,
                    -0.0,
                    0.09143
                ],
                [
                    0.0001,
                    -1.43697,
                    0.00015
                ],
                [
                    -0.09422,
                    -0.0,
                    -1.50265
                ]
            ],
            [
                [
                    -1.58505,
                    -0.0,
                    -0.33745
                ],
                [
                    -0.00018,
                    -1.36233,
                    -0.00016
                ],
                [
                    -0.29778,
                    -0.0,
                    -2.40196
                ]
            ],
            [
                [
                    -2.56512,
                    -0.0,
                    -0.09143
                ],
                [
                    0.0001,
                    -1.43697,
                    -0.00015
                ],
                [
                    0.09435,
                    -0.0,
                    -1.50243
                ]
            ],
            [
                [
                    -2.56528,
                    -0.0,
                    -0.09151
                ],
                [
                    -0.0001,
                    -1.43697,
                    0.00015
                ],
                [
                    0.09422,
                    -0.0,
                    -1.50265
                ]
            ],
            [
                [
                    -2.56528,
                    -0.0,
                    0.09151
                ],
                [
                    -0.0001,
                    -1.43697,
                    -0.00015
                ],
                [
                    -0.09435,
                    -0.0,
                    -1.50243
                ]
            ],
            [
                [
                    -1.73861,
                    -0.34486,
                    -0.29661
                ],
                [
                    -0.38583,
                    -2.33702,
                    0.07104
                ],
                [
                    -0.30307,
                    0.1144,
                    -1.73544
                ]
            ]
        ]
    },
    "band_gap": 3.0285999999999995,
    "is_direct": false,
    "formula": "LiInSiO4"
}