{
    "mp_id": "mp-756382",
    "nelements": 3,
    "nsites": 20,
    "elements": [
        "O",
        "Sr",
        "W"
    ],
    "structure": {
        "@module": "pymatgen.core.structure",
        "@class": "Structure",
        "charge": null,
        "lattice": {
            "matrix": [
                [
                    4.89665109,
                    2.82708292,
                    3.81730956
                ],
                [
                    -4.89665125,
                    2.82708265,
                    3.81730956
                ],
                [
                    1.6e-07,
                    -5.65416657,
                    3.81730956
                ]
            ],
            "a": 6.822128847406893,
            "b": 6.8221288503607855,
            "c": 6.822129570608651,
            "alpha": 91.73970116988819,
            "beta": 91.7397011210025,
            "gamma": 91.73969964694527,
            "volume": 317.0635911325014
        },
        "sites": [
            {
                "species": [
                    {
                        "element": "Sr",
                        "occu": 1
                    }
                ],
                "abc": [
                    0.25345919,
                    0.06483315,
                    0.56338677
                ],
                "xyz": [
                    0.9236359841369628,
                    -2.285643820438397,
                    3.365642095455292
                ],
                "label": "Sr",
                "properties": {}
            },
            {
                "species": [
                    {
                        "element": "Sr",
                        "occu": 1
                    }
                ],
                "abc": [
                    0.93516685,
                    0.43661323,
                    0.74654081
                ],
                "xyz": [
                    2.4412431763848583,
                    -0.3429301747640605,
                    8.086286584544709
                ],
                "label": "Sr",
                "properties": {}
            },
            {
                "species": [
                    {
                        "element": "Sr",
                        "occu": 1
                    }
                ],
                "abc": [
                    0.43661323,
                    0.74654081,
                    0.93516685
                ],
                "xyz": [
                    -1.5176071922478962,
                    -1.9427147639952262,
                    8.086286584544709
                ],
                "label": "Sr",
                "properties": {}
            },
            {
                "species": [
                    {
                        "element": "Sr",
                        "occu": 1
                    }
                ],
                "abc": [
                    0.56338677,
                    0.25345919,
                    0.06483315
                ],
                "xyz": [
                    1.5176071922478958,
                    1.9427137639952266,
                    3.3656420954552915
                ],
                "label": "Sr",
                "properties": {}
            },
            {
                "species": [
                    {
                        "element": "Sr",
                        "occu": 1
                    }
                ],
                "abc": [
                    0.06483315,
                    0.56338677,
                    0.25345919
                ],
                "xyz": [
                    -2.4412431763848588,
                    0.34292917476406015,
                    3.365642095455292
                ],
                "label": "Sr",
                "properties": {}
            },
            {
                "species": [
                    {
                        "element": "Sr",
                        "occu": 1
                    }
                ],
                "abc": [
                    0.74654081,
                    0.93516685,
                    0.43661323
                ],
                "xyz": [
                    -0.9236359841369624,
                    2.285642820438397,
                    8.086286584544709
                ],
                "label": "Sr",
                "properties": {}
            },
            {
                "species": [
                    {
                        "element": "W",
                        "occu": 1
                    }
                ],
                "abc": [
                    0.5,
                    0.5,
                    0.5
                ],
                "xyz": [
                    4.210846949751423e-17,
                    -5.00000000069889e-07,
                    5.72596434
                ],
                "label": "W",
                "properties": {}
            },
            {
                "species": [
                    {
                        "element": "W",
                        "occu": 1
                    }
                ],
                "abc": [
                    0.0,
                    0.0,
                    0.0
                ],
                "xyz": [
                    0.0,
                    0.0,
                    0.0
                ],
                "label": "W",
                "properties": {}
            },
            {
                "species": [
                    {
                        "element": "O",
                        "occu": 1
                    }
                ],
                "abc": [
                    0.27105683,
                    0.06698143,
                    0.94177666
                ],
                "xyz": [
                    0.999286169819423,
                    -4.369299934310724,
                    4.885449729146635
                ],
                "label": "O",
                "properties": {}
            },
            {
                "species": [
                    {
                        "element": "O",
                        "occu": 1
                    }
                ],
                "abc": [
                    0.93301857,
                    0.05822334,
                    0.72894317
                ],
                "xyz": [
                    4.283567123821474,
                    -1.319243045614951,
                    6.566478950853364
                ],
                "label": "O",
                "properties": {}
            },
            {
                "species": [
                    {
                        "element": "O",
                        "occu": 1
                    }
                ],
                "abc": [
                    0.57350397,
                    0.45343836,
                    0.77094892
                ],
                "xyz": [
                    0.5879194508797043,
                    -1.455822612101958,
                    6.86310745646535
                ],
                "label": "O",
                "properties": {}
            },
            {
                "species": [
                    {
                        "element": "O",
                        "occu": 1
                    }
                ],
                "abc": [
                    0.05822334,
                    0.72894317,
                    0.93301857
                ],
                "xyz": [
                    -3.28428095400205,
                    -3.050057608880852,
                    6.566478950853364
                ],
                "label": "O",
                "properties": {}
            },
            {
                "species": [
                    {
                        "element": "O",
                        "occu": 1
                    }
                ],
                "abc": [
                    0.54656164,
                    0.22905108,
                    0.42649603
                ],
                "xyz": [
                    1.5547384613017023,
                    -0.21875818366076683,
                    4.58882122353465
                ],
                "label": "O",
                "properties": {}
            },
            {
                "species": [
                    {
                        "element": "O",
                        "occu": 1
                    }
                ],
                "abc": [
                    0.22905108,
                    0.42649603,
                    0.54656164
                ],
                "xyz": [
                    -0.9668190104219979,
                    -1.2370646305499413,
                    4.58882122353465
                ],
                "label": "O",
                "properties": {}
            },
            {
                "species": [
                    {
                        "element": "O",
                        "occu": 1
                    }
                ],
                "abc": [
                    0.77094892,
                    0.57350397,
                    0.45343836
                ],
                "xyz": [
                    0.9668190104219981,
                    1.2370636305499416,
                    6.86310745646535
                ],
                "label": "O",
                "properties": {}
            },
            {
                "species": [
                    {
                        "element": "O",
                        "occu": 1
                    }
                ],
                "abc": [
                    0.45343836,
                    0.77094892,
                    0.57350397
                ],
                "xyz": [
                    -1.5547384613017026,
                    0.21875718366076624,
                    6.86310745646535
                ],
                "label": "O",
                "properties": {}
            },
            {
                "species": [
                    {
                        "element": "O",
                        "occu": 1
                    }
                ],
                "abc": [
                    0.94177666,
                    0.27105683,
                    0.06698143
                ],
                "xyz": [
                    3.2842809540020506,
                    3.050056608880852,
                    4.885449729146635
                ],
                "label": "O",
                "properties": {}
            },
            {
                "species": [
                    {
                        "element": "O",
                        "occu": 1
                    }
                ],
                "abc": [
                    0.42649603,
                    0.54656164,
                    0.22905108
                ],
                "xyz": [
                    -0.5879194508797038,
                    1.455821612101958,
                    4.58882122353465
                ],
                "label": "O",
                "properties": {}
            },
            {
                "species": [
                    {
                        "element": "O",
                        "occu": 1
                    }
                ],
                "abc": [
                    0.06698143,
                    0.94177666,
                    0.27105683
                ],
                "xyz": [
                    -4.283567123821473,
                    1.3192420456149514,
                    4.885449729146636
                ],
                "label": "O",
                "properties": {}
            },
            {
                "species": [
                    {
                        "element": "O",
                        "occu": 1
                    }
                ],
                "abc": [
                    0.72894317,
                    0.93301857,
                    0.05822334
                ],
                "xyz": [
                    -0.9992861698194226,
                    4.369298934310724,
                    6.566478950853365
                ],
                "label": "O",
                "properties": {}
            }
        ]
    },
    "spacegroup": {
        "source": "spglib",
        "symbol": "R-3",
        "number": 148,
        "point_group": "-3",
        "crystal_system": "trigonal",
        "hall": "-R 3"
    },
    "dielectric": {
        "epsilon_ionic": [
            [
                9.07345334,
                4.11e-06,
                2.16e-06
            ],
            [
                4.11e-06,
                9.07349476,
                2.18e-06
            ],
            [
                2.16e-06,
                2.18e-06,
                7.73811152
            ]
        ],
        "epsilon_ionic_avg": 8.628353206666667,
        "epsilon_ionic_eig": [
            9.073452936116384,
            9.07349516389067,
            7.738111519992947
        ],
        "epsilon_electronic": [
            [
                3.93388866,
                3.19e-06,
                -0.0
            ],
            [
                -3.19e-06,
                3.93388929,
                0.0
            ],
            [
                -0.0,
                -0.0,
                3.76124576
            ]
        ],
        "epsilon_electronic_avg": 3.8763412366666667,
        "epsilon_electronic_eig": [
            3.9338889750000003,
            3.9338889750000003,
            3.76124576
        ]
    },
    "phonon": {
        "lowest_freq": -0.050777268849222436,
        "frequency": [
            -0.050777268849222436,
            -0.05077726475801933,
            -0.018534721210103352,
            2.6315965258063705,
            2.6374271010430297,
            2.6374271705426175,
            3.3678837737854876,
            3.3678838717521025,
            3.6921661060590467,
            3.7410903062353715,
            3.7410903878961004,
            4.006210520212783,
            4.058531260311274,
            4.713851615733019,
            4.713851711650387,
            4.887542852608296,
            5.1826481943070535,
            5.182648406515278,
            5.480000378803391,
            5.747651738722467,
            5.7476521001572145,
            5.751153527570983,
            5.751153740050206,
            5.804736755948581,
            6.580009622012846,
            6.580009807726958,
            6.943649128421942,
            6.9436493924043114,
            7.0467625624520025,
            8.156165156515156,
            8.156165171497697,
            8.503310052974982,
            9.03496703462055,
            9.034967048145786,
            9.149631490433471,
            9.516659370766632,
            10.18778378254649,
            10.372326137516513,
            10.372326832616487,
            11.875683768313024,
            12.173296442464327,
            12.181309404306893,
            12.181310086467072,
            12.44010399229288,
            12.468538519406449,
            12.46853859781183,
            13.343531682224874,
            13.343531911174878,
            15.299760611954584,
            16.04326309883228,
            16.043263175001368,
            16.369869777216692,
            16.369870075814216,
            16.41199516358754,
            16.79438404412862,
            16.794384335178446,
            18.035650047555375,
            18.0356505218385,
            22.282109254439032,
            22.59437719615968
        ]
    },
    "born_effective_charge": {
        "avg_abs_trace": 2.8787305,
        "tensors": [
            [
                [
                    2.33281,
                    -0.07923,
                    -0.14203
                ],
                [
                    -0.03229,
                    2.81145,
                    -0.06158
                ],
                [
                    -0.34002,
                    0.08809,
                    2.42595
                ]
            ],
            [
                [
                    2.74005,
                    -0.20285,
                    0.0177
                ],
                [
                    -0.15595,
                    2.40417,
                    0.15389
                ],
                [
                    0.24635,
                    0.25034,
                    2.42602
                ]
            ],
            [
                [
                    2.64354,
                    0.21166,
                    0.12436
                ],
                [
                    0.25862,
                    2.5007,
                    -0.0923
                ],
                [
                    0.09362,
                    -0.33851,
                    2.42602
                ]
            ],
            [
                [
                    2.6435,
                    0.21165,
                    0.12432
                ],
                [
                    0.25858,
                    2.5008,
                    -0.09223
                ],
                [
                    0.09373,
                    -0.33851,
                    2.42595
                ]
            ],
            [
                [
                    2.74005,
                    -0.20284,
                    0.01776
                ],
                [
                    -0.15591,
                    2.40424,
                    0.15376
                ],
                [
                    0.2463,
                    0.25043,
                    2.42595
                ]
            ],
            [
                [
                    2.33282,
                    -0.07917,
                    -0.14211
                ],
                [
                    -0.03226,
                    2.8115,
                    -0.06153
                ],
                [
                    -0.33997,
                    0.08817,
                    2.42602
                ]
            ],
            [
                [
                    6.44904,
                    0.04656,
                    -0.0
                ],
                [
                    -0.04656,
                    6.449,
                    1e-05
                ],
                [
                    0.0,
                    0.0,
                    7.40935
                ]
            ],
            [
                [
                    7.4895,
                    0.20318,
                    0.0
                ],
                [
                    -0.20318,
                    7.48946,
                    -0.0
                ],
                [
                    0.0,
                    0.0,
                    5.65401
                ]
            ],
            [
                [
                    -2.32888,
                    -0.87875,
                    -0.74152
                ],
                [
                    -0.86206,
                    -2.56557,
                    -0.88494
                ],
                [
                    -0.71611,
                    -0.78563,
                    -2.30915
                ]
            ],
            [
                [
                    -1.75259,
                    0.52934,
                    -0.39563
                ],
                [
                    0.54598,
                    -3.14183,
                    1.08463
                ],
                [
                    -0.32234,
                    1.013,
                    -2.3092
                ]
            ],
            [
                [
                    -1.92838,
                    0.48291,
                    -0.48024
                ],
                [
                    0.50262,
                    -2.96765,
                    1.08745
                ],
                [
                    -0.49215,
                    1.15509,
                    -2.29407
                ]
            ],
            [
                [
                    -3.26017,
                    0.32441,
                    1.13714
                ],
                [
                    0.34105,
                    -1.63426,
                    -0.19968
                ],
                [
                    1.03845,
                    -0.22735,
                    -2.3092
                ]
            ],
            [
                [
                    -3.13459,
                    0.19376,
                    1.18184
                ],
                [
                    0.2134,
                    -1.76142,
                    -0.12782
                ],
                [
                    1.24635,
                    -0.1513,
                    -2.29401
                ]
            ],
            [
                [
                    -2.28104,
                    -0.70621,
                    -0.7016
                ],
                [
                    -0.68655,
                    -2.61497,
                    -0.95961
                ],
                [
                    -0.75421,
                    -1.00372,
                    -2.29401
                ]
            ],
            [
                [
                    -2.28105,
                    -0.70623,
                    -0.70163
                ],
                [
                    -0.68658,
                    -2.61496,
                    -0.95965
                ],
                [
                    -0.75426,
                    -1.00376,
                    -2.29407
                ]
            ],
            [
                [
                    -3.13456,
                    0.19378,
                    1.18188
                ],
                [
                    0.21347,
                    -1.76142,
                    -0.12781
                ],
                [
                    1.24642,
                    -0.15133,
                    -2.29407
                ]
            ],
            [
                [
                    -3.26017,
                    0.32437,
                    1.13712
                ],
                [
                    0.34105,
                    -1.63426,
                    -0.19971
                ],
                [
                    1.03843,
                    -0.22735,
                    -2.30915
                ]
            ],
            [
                [
                    -1.9284,
                    0.483,
                    -0.48025
                ],
                [
                    0.50263,
                    -2.96759,
                    1.08742
                ],
                [
                    -0.49215,
                    1.15503,
                    -2.29401
                ]
            ],
            [
                [
                    -1.75261,
                    0.52934,
                    -0.39562
                ],
                [
                    0.54603,
                    -3.14185,
                    1.08465
                ],
                [
                    -0.32232,
                    1.01299,
                    -2.30915
                ]
            ],
            [
                [
                    -2.32889,
                    -0.87871,
                    -0.7415
                ],
                [
                    -0.86207,
                    -2.56553,
                    -0.88493
                ],
                [
                    -0.71611,
                    -0.78565,
                    -2.3092
                ]
            ]
        ]
    },
    "band_gap": 3.4144999999999994,
    "is_direct": true,
    "formula": "Sr3WO6"
}