{
    "mp_id": "mp-768976",
    "nelements": 3,
    "nsites": 28,
    "elements": [
        "Cs",
        "O",
        "Sc"
    ],
    "structure": {
        "@module": "pymatgen.core.structure",
        "@class": "Structure",
        "charge": null,
        "lattice": {
            "matrix": [
                [
                    7.9787723,
                    0.0,
                    -0.00143178
                ],
                [
                    0.0,
                    7.28937204,
                    0.0
                ],
                [
                    -1.20125606,
                    0.0,
                    11.61059666
                ]
            ],
            "a": 7.978772428465501,
            "b": 7.28937204,
            "c": 11.672573449025279,
            "alpha": 90.0,
            "beta": 95.91720325481253,
            "gamma": 90.0,
            "volume": 675.262547762963
        },
        "sites": [
            {
                "species": [
                    {
                        "element": "Cs",
                        "occu": 1
                    }
                ],
                "abc": [
                    0.65079642,
                    0.66229363,
                    0.0747843
                ],
                "xyz": [
                    5.102721355267308,
                    4.827704668792105,
                    0.8673585465022104
                ],
                "label": "Cs",
                "properties": {}
            },
            {
                "species": [
                    {
                        "element": "Cs",
                        "occu": 1
                    }
                ],
                "abc": [
                    0.05132328,
                    0.37695156,
                    0.15524014
                ],
                "xyz": [
                    0.2230136058788956,
                    2.7477401618983825,
                    1.802357167336094
                ],
                "label": "Cs",
                "properties": {}
            },
            {
                "species": [
                    {
                        "element": "Cs",
                        "occu": 1
                    }
                ],
                "abc": [
                    0.62303689,
                    0.17777287,
                    0.1920464
                ],
                "xyz": [
                    4.740372578008963,
                    1.2958525880485547,
                    2.22888123864666
                ],
                "label": "Cs",
                "properties": {}
            },
            {
                "species": [
                    {
                        "element": "Cs",
                        "occu": 1
                    }
                ],
                "abc": [
                    0.37696311,
                    0.67777287,
                    0.3079536
                ],
                "xyz": [
                    2.6377716919910372,
                    4.940538608048555,
                    3.5749853113533403
                ],
                "label": "Cs",
                "properties": {}
            },
            {
                "species": [
                    {
                        "element": "Cs",
                        "occu": 1
                    }
                ],
                "abc": [
                    0.94867672,
                    0.87695156,
                    0.34475986
                ],
                "xyz": [
                    7.1551306641211045,
                    6.392426181898382,
                    4.001509382663906
                ],
                "label": "Cs",
                "properties": {}
            },
            {
                "species": [
                    {
                        "element": "Cs",
                        "occu": 1
                    }
                ],
                "abc": [
                    0.34920358,
                    0.16229363,
                    0.4252157
                ],
                "xyz": [
                    2.275422914732692,
                    1.183018648792105,
                    4.93650800349779
                ],
                "label": "Cs",
                "properties": {}
            },
            {
                "species": [
                    {
                        "element": "Cs",
                        "occu": 1
                    }
                ],
                "abc": [
                    0.65079642,
                    0.83770637,
                    0.5747843
                ],
                "xyz": [
                    4.5020933252673085,
                    6.106353391207895,
                    6.67265687650221
                ],
                "label": "Cs",
                "properties": {}
            },
            {
                "species": [
                    {
                        "element": "Cs",
                        "occu": 1
                    }
                ],
                "abc": [
                    0.05132328,
                    0.12304844,
                    0.65524014
                ],
                "xyz": [
                    -0.37761442412110435,
                    0.8969458581016175,
                    7.607655497336094
                ],
                "label": "Cs",
                "properties": {}
            },
            {
                "species": [
                    {
                        "element": "Cs",
                        "occu": 1
                    }
                ],
                "abc": [
                    0.62303689,
                    0.32222713,
                    0.6920464
                ],
                "xyz": [
                    4.139744548008963,
                    2.348833431951445,
                    8.034179568646659
                ],
                "label": "Cs",
                "properties": {}
            },
            {
                "species": [
                    {
                        "element": "Cs",
                        "occu": 1
                    }
                ],
                "abc": [
                    0.37696311,
                    0.82222713,
                    0.8079536
                ],
                "xyz": [
                    2.037143661991037,
                    5.993519451951445,
                    9.38028364135334
                ],
                "label": "Cs",
                "properties": {}
            },
            {
                "species": [
                    {
                        "element": "Cs",
                        "occu": 1
                    }
                ],
                "abc": [
                    0.94867672,
                    0.62304844,
                    0.84475986
                ],
                "xyz": [
                    6.554502634121104,
                    4.541631878101618,
                    9.806807712663906
                ],
                "label": "Cs",
                "properties": {}
            },
            {
                "species": [
                    {
                        "element": "Cs",
                        "occu": 1
                    }
                ],
                "abc": [
                    0.34920358,
                    0.33770637,
                    0.9252157
                ],
                "xyz": [
                    1.6747948847326921,
                    2.4616673712078945,
                    10.74180633349779
                ],
                "label": "Cs",
                "properties": {}
            },
            {
                "species": [
                    {
                        "element": "Sc",
                        "occu": 1
                    }
                ],
                "abc": [
                    0.15036834,
                    0.91682343,
                    0.06692845
                ],
                "xyz": [
                    1.1193565398400749,
                    6.683067076258897,
                    0.7768639436471318
                ],
                "label": "Sc",
                "properties": {}
            },
            {
                "species": [
                    {
                        "element": "Sc",
                        "occu": 1
                    }
                ],
                "abc": [
                    0.84963166,
                    0.41682343,
                    0.43307155
                ],
                "xyz": [
                    6.258787730159925,
                    3.0383810562588973,
                    5.027002606352869
                ],
                "label": "Sc",
                "properties": {}
            },
            {
                "species": [
                    {
                        "element": "Sc",
                        "occu": 1
                    }
                ],
                "abc": [
                    0.15036834,
                    0.58317657,
                    0.56692845
                ],
                "xyz": [
                    0.5187285098400749,
                    4.250990983741103,
                    6.582162273647133
                ],
                "label": "Sc",
                "properties": {}
            },
            {
                "species": [
                    {
                        "element": "Sc",
                        "occu": 1
                    }
                ],
                "abc": [
                    0.84963166,
                    0.08317657,
                    0.93307155
                ],
                "xyz": [
                    5.658159700159925,
                    0.6063049637411029,
                    10.832300936352869
                ],
                "label": "Sc",
                "properties": {}
            },
            {
                "species": [
                    {
                        "element": "O",
                        "occu": 1
                    }
                ],
                "abc": [
                    0.23981292,
                    0.66963068,
                    0.04445086
                ],
                "xyz": [
                    1.8600158183309046,
                    4.881187155918187,
                    0.51575764730753
                ],
                "label": "O",
                "properties": {}
            },
            {
                "species": [
                    {
                        "element": "O",
                        "occu": 1
                    }
                ],
                "abc": [
                    0.89849816,
                    0.94378033,
                    0.08374553
                ],
                "xyz": [
                    7.068312405198556,
                    6.879565949403973,
                    0.9710491192124051
                ],
                "label": "O",
                "properties": {}
            },
            {
                "species": [
                    {
                        "element": "O",
                        "occu": 1
                    }
                ],
                "abc": [
                    0.28502767,
                    0.04836766,
                    0.18986687
                ],
                "xyz": [
                    2.046092149948809,
                    0.3525698684442264,
                    2.2040595497493016
                ],
                "label": "O",
                "properties": {}
            },
            {
                "species": [
                    {
                        "element": "O",
                        "occu": 1
                    }
                ],
                "abc": [
                    0.71497233,
                    0.54836766,
                    0.31013313
                ],
                "xyz": [
                    5.332052120051192,
                    3.9972558884442266,
                    3.5998070002506983
                ],
                "label": "O",
                "properties": {}
            },
            {
                "species": [
                    {
                        "element": "O",
                        "occu": 1
                    }
                ],
                "abc": [
                    0.10150184,
                    0.44378033,
                    0.41625447
                ],
                "xyz": [
                    0.30983186480144376,
                    3.234879929403973,
                    4.832817430787595
                ],
                "label": "O",
                "properties": {}
            },
            {
                "species": [
                    {
                        "element": "O",
                        "occu": 1
                    }
                ],
                "abc": [
                    0.76018708,
                    0.16963068,
                    0.45554914
                ],
                "xyz": [
                    5.518128451669096,
                    1.2365011359181872,
                    5.28810890269247
                ],
                "label": "O",
                "properties": {}
            },
            {
                "species": [
                    {
                        "element": "O",
                        "occu": 1
                    }
                ],
                "abc": [
                    0.23981292,
                    0.83036932,
                    0.54445086
                ],
                "xyz": [
                    1.2593877883309048,
                    6.0528709040818125,
                    6.32105597730753
                ],
                "label": "O",
                "properties": {}
            },
            {
                "species": [
                    {
                        "element": "O",
                        "occu": 1
                    }
                ],
                "abc": [
                    0.89849816,
                    0.55621967,
                    0.58374553
                ],
                "xyz": [
                    6.467684375198556,
                    4.054492110596027,
                    6.7763474492124045
                ],
                "label": "O",
                "properties": {}
            },
            {
                "species": [
                    {
                        "element": "O",
                        "occu": 1
                    }
                ],
                "abc": [
                    0.28502767,
                    0.45163234,
                    0.68986687
                ],
                "xyz": [
                    1.445464119948809,
                    3.2921161515557738,
                    8.009357879749302
                ],
                "label": "O",
                "properties": {}
            },
            {
                "species": [
                    {
                        "element": "O",
                        "occu": 1
                    }
                ],
                "abc": [
                    0.71497233,
                    0.95163234,
                    0.81013313
                ],
                "xyz": [
                    4.731424090051192,
                    6.936802171555773,
                    9.405105330250699
                ],
                "label": "O",
                "properties": {}
            },
            {
                "species": [
                    {
                        "element": "O",
                        "occu": 1
                    }
                ],
                "abc": [
                    0.10150184,
                    0.05621967,
                    0.91625447
                ],
                "xyz": [
                    -0.29079616519855633,
                    0.4098060905960268,
                    10.638115760787596
                ],
                "label": "O",
                "properties": {}
            },
            {
                "species": [
                    {
                        "element": "O",
                        "occu": 1
                    }
                ],
                "abc": [
                    0.76018708,
                    0.33036932,
                    0.95554914
                ],
                "xyz": [
                    4.917500421669096,
                    2.408184884081813,
                    11.093407232692472
                ],
                "label": "O",
                "properties": {}
            }
        ]
    },
    "spacegroup": {
        "source": "spglib",
        "symbol": "P2_1/c",
        "number": 14,
        "point_group": "2/m",
        "crystal_system": "monoclinic",
        "hall": "-P 2ybc"
    },
    "dielectric": {
        "epsilon_ionic": [
            [
                6.99552489,
                -0.0,
                -0.25373536
            ],
            [
                -0.0,
                8.01909476,
                0.0
            ],
            [
                -0.25373536,
                0.0,
                8.94932329
            ]
        ],
        "epsilon_ionic_avg": 7.987980980000001,
        "epsilon_ionic_eig": [
            6.963110620420322,
            8.98173755957968,
            8.01909476
        ],
        "epsilon_electronic": [
            [
                3.5532264,
                0.0,
                0.08749532
            ],
            [
                0.0,
                3.59853316,
                0.0
            ],
            [
                0.08749669,
                0.0,
                3.64857001
            ]
        ],
        "epsilon_electronic_avg": 3.6001098566666667,
        "epsilon_electronic_eig": [
            3.5012580931852852,
            3.7005383168147143,
            3.59853316
        ]
    },
    "phonon": {
        "lowest_freq": -0.16518405966616004,
        "frequency": [
            -0.16518405966616004,
            -0.07123465798755804,
            -0.034404077924983734,
            1.0156498669485539,
            1.0508028794588404,
            1.1695631004130165,
            1.237307248558178,
            1.2589540352959003,
            1.3133751829105327,
            1.3491793895728532,
            1.3610618409321646,
            1.432269073715061,
            1.491448388506266,
            1.5122465751348815,
            1.5851649422062295,
            1.654049504660043,
            1.6800573242526327,
            1.7490071074852798,
            1.7957032473331174,
            1.8981755074985283,
            1.986673042949271,
            1.98742635952912,
            2.0257543634371133,
            2.0900955313735037,
            2.2133512146644736,
            2.2340339128491173,
            2.3077742262396614,
            2.3438550684603223,
            2.3549624896742243,
            2.4570200728148954,
            2.4852561898397925,
            2.6007761885173193,
            2.647492479385173,
            2.6775599307239917,
            2.7744222328033423,
            2.8155315622392236,
            3.0133657546040524,
            3.0180478903632584,
            3.1876446038221418,
            3.303098493942808,
            3.324158577110851,
            3.4028841622541943,
            3.404216207704249,
            3.708168165481503,
            3.9459878748089956,
            3.988634251262066,
            4.22870624099204,
            4.280250533635909,
            4.530134594283113,
            4.648729570711164,
            5.332803646471213,
            5.337106041414406,
            5.880699068068774,
            6.144648519257227,
            6.190139368200484,
            6.235784960207039,
            6.273515398000276,
            6.285378061012701,
            6.659966102274297,
            7.045237402956535,
            7.328498083169909,
            7.674456962215801,
            8.139078010206354,
            8.506337760582928,
            8.625716291514587,
            9.110794887504749,
            9.658791801378673,
            9.795517019366866,
            12.626150092787205,
            12.648261021282735,
            14.772888472298202,
            14.954863702527332,
            15.44450598648267,
            15.686157873404966,
            15.858932273648026,
            15.880943463781868,
            16.865548118272567,
            17.013850341753102,
            17.324813567642515,
            17.384463369655776,
            18.039636160056304,
            18.129774316641882,
            18.93788154393495,
            18.98587138581663
        ]
    },
    "born_effective_charge": {
        "avg_abs_trace": 1.9312338095238097,
        "tensors": [
            [
                [
                    1.33945,
                    0.11051,
                    -0.01802
                ],
                [
                    0.07991,
                    1.34291,
                    -0.01334
                ],
                [
                    -0.05523,
                    -0.02055,
                    1.39465
                ]
            ],
            [
                [
                    1.10944,
                    -0.01139,
                    0.02553
                ],
                [
                    0.03355,
                    1.40463,
                    -0.01543
                ],
                [
                    0.01247,
                    0.00805,
                    1.36329
                ]
            ],
            [
                [
                    1.48624,
                    0.15161,
                    -0.08643
                ],
                [
                    0.1649,
                    1.14781,
                    0.10351
                ],
                [
                    -0.03695,
                    0.1224,
                    1.32023
                ]
            ],
            [
                [
                    1.4862,
                    -0.15155,
                    -0.08647
                ],
                [
                    -0.1649,
                    1.14781,
                    -0.10351
                ],
                [
                    -0.0369,
                    -0.12241,
                    1.32023
                ]
            ],
            [
                [
                    1.10942,
                    0.01142,
                    0.02551
                ],
                [
                    -0.03355,
                    1.40463,
                    0.01543
                ],
                [
                    0.0124,
                    -0.00802,
                    1.3633
                ]
            ],
            [
                [
                    1.33951,
                    -0.11052,
                    -0.01799
                ],
                [
                    -0.07991,
                    1.34291,
                    0.01334
                ],
                [
                    -0.0552,
                    0.02055,
                    1.39465
                ]
            ],
            [
                [
                    1.33945,
                    -0.11051,
                    -0.01802
                ],
                [
                    -0.07993,
                    1.34305,
                    0.01348
                ],
                [
                    -0.05523,
                    0.02055,
                    1.39465
                ]
            ],
            [
                [
                    1.10944,
                    0.01139,
                    0.02553
                ],
                [
                    -0.03356,
                    1.40459,
                    0.01543
                ],
                [
                    0.01247,
                    -0.00805,
                    1.36329
                ]
            ],
            [
                [
                    1.48624,
                    -0.15161,
                    -0.08643
                ],
                [
                    -0.16486,
                    1.14782,
                    -0.10351
                ],
                [
                    -0.03695,
                    -0.1224,
                    1.32023
                ]
            ],
            [
                [
                    1.4862,
                    0.15155,
                    -0.08647
                ],
                [
                    0.16486,
                    1.14782,
                    0.10351
                ],
                [
                    -0.0369,
                    0.12241,
                    1.32023
                ]
            ],
            [
                [
                    1.10942,
                    -0.01142,
                    0.02551
                ],
                [
                    0.03356,
                    1.40459,
                    -0.01543
                ],
                [
                    0.0124,
                    0.00802,
                    1.3633
                ]
            ],
            [
                [
                    1.33951,
                    0.11052,
                    -0.01799
                ],
                [
                    0.07993,
                    1.34305,
                    -0.01348
                ],
                [
                    -0.0552,
                    -0.02055,
                    1.39465
                ]
            ],
            [
                [
                    2.66345,
                    -0.50207,
                    0.66263
                ],
                [
                    -0.52108,
                    2.90297,
                    0.12193
                ],
                [
                    0.62952,
                    0.16661,
                    2.80276
                ]
            ],
            [
                [
                    2.66345,
                    0.50199,
                    0.66263
                ],
                [
                    0.52108,
                    2.90297,
                    -0.12193
                ],
                [
                    0.62948,
                    -0.16676,
                    2.80276
                ]
            ],
            [
                [
                    2.66345,
                    0.50207,
                    0.66263
                ],
                [
                    0.52131,
                    2.90308,
                    -0.12162
                ],
                [
                    0.62952,
                    -0.16661,
                    2.80276
                ]
            ],
            [
                [
                    2.66345,
                    -0.50199,
                    0.66263
                ],
                [
                    -0.52131,
                    2.90308,
                    0.12162
                ],
                [
                    0.62948,
                    0.16676,
                    2.80276
                ]
            ],
            [
                [
                    -1.9238,
                    0.48222,
                    0.14695
                ],
                [
                    0.45487,
                    -2.95029,
                    -0.17174
                ],
                [
                    0.10704,
                    -0.157,
                    -1.9703
                ]
            ],
            [
                [
                    -2.49617,
                    0.14624,
                    -0.143
                ],
                [
                    0.11654,
                    -1.7675,
                    0.49359
                ],
                [
                    -0.07565,
                    0.46864,
                    -2.2252
                ]
            ],
            [
                [
                    -2.17866,
                    -0.37636,
                    -0.58763
                ],
                [
                    -0.38158,
                    -2.0805,
                    -0.38604
                ],
                [
                    -0.58123,
                    -0.45262,
                    -2.68542
                ]
            ],
            [
                [
                    -2.1787,
                    0.37643,
                    -0.58763
                ],
                [
                    0.38158,
                    -2.0805,
                    0.38604
                ],
                [
                    -0.58125,
                    0.45272,
                    -2.68548
                ]
            ],
            [
                [
                    -2.49613,
                    -0.14625,
                    -0.14303
                ],
                [
                    -0.11654,
                    -1.7675,
                    -0.49359
                ],
                [
                    -0.07562,
                    -0.46863,
                    -2.22527
                ]
            ],
            [
                [
                    -1.92372,
                    -0.48212,
                    0.14694
                ],
                [
                    -0.45487,
                    -2.95029,
                    0.17174
                ],
                [
                    0.10712,
                    0.15706,
                    -1.97021
                ]
            ],
            [
                [
                    -1.9238,
                    -0.48222,
                    0.14695
                ],
                [
                    -0.45494,
                    -2.95064,
                    0.17157
                ],
                [
                    0.10704,
                    0.157,
                    -1.9703
                ]
            ],
            [
                [
                    -2.49617,
                    -0.14624,
                    -0.143
                ],
                [
                    -0.11655,
                    -1.76736,
                    -0.49368
                ],
                [
                    -0.07565,
                    -0.46864,
                    -2.2252
                ]
            ],
            [
                [
                    -2.17866,
                    0.37636,
                    -0.58763
                ],
                [
                    0.38148,
                    -2.08058,
                    0.38625
                ],
                [
                    -0.58123,
                    0.45262,
                    -2.68542
                ]
            ],
            [
                [
                    -2.1787,
                    -0.37643,
                    -0.58763
                ],
                [
                    -0.38148,
                    -2.08058,
                    -0.38625
                ],
                [
                    -0.58125,
                    -0.45272,
                    -2.68548
                ]
            ],
            [
                [
                    -2.49613,
                    0.14625,
                    -0.14303
                ],
                [
                    0.11655,
                    -1.76736,
                    0.49368
                ],
                [
                    -0.07562,
                    0.46863,
                    -2.22527
                ]
            ],
            [
                [
                    -1.92372,
                    0.48212,
                    0.14694
                ],
                [
                    0.45494,
                    -2.95064,
                    -0.17157
                ],
                [
                    0.10712,
                    -0.15706,
                    -1.97021
                ]
            ]
        ]
    },
    "band_gap": 2.882,
    "is_direct": false,
    "formula": "Cs3ScO3"
}