{
    "mp_id": "mp-755287",
    "nelements": 3,
    "nsites": 8,
    "elements": [
        "Ca",
        "Cd",
        "O"
    ],
    "structure": {
        "@module": "pymatgen.core.structure",
        "@class": "Structure",
        "charge": null,
        "lattice": {
            "matrix": [
                [
                    3.33925977,
                    -4.74598261,
                    0.0
                ],
                [
                    3.33925977,
                    4.74598261,
                    0.0
                ],
                [
                    0.0,
                    0.0,
                    3.36949659
                ]
            ],
            "a": 5.803017038227862,
            "b": 5.803017038227862,
            "c": 3.36949659,
            "alpha": 90.0,
            "beta": 90.0,
            "gamma": 109.73978164077688,
            "volume": 106.80002755056023
        },
        "sites": [
            {
                "species": [
                    {
                        "element": "Ca",
                        "occu": 1
                    }
                ],
                "abc": [
                    0.5,
                    0.5,
                    0.0
                ],
                "xyz": [
                    3.33925977,
                    0.0,
                    0.0
                ],
                "label": "Ca",
                "properties": {}
            },
            {
                "species": [
                    {
                        "element": "Ca",
                        "occu": 1
                    }
                ],
                "abc": [
                    0.0,
                    0.5,
                    0.5
                ],
                "xyz": [
                    1.669629885,
                    2.372991305,
                    1.684748295
                ],
                "label": "Ca",
                "properties": {}
            },
            {
                "species": [
                    {
                        "element": "Ca",
                        "occu": 1
                    }
                ],
                "abc": [
                    0.5,
                    0.0,
                    0.5
                ],
                "xyz": [
                    1.669629885,
                    -2.372991305,
                    1.684748295
                ],
                "label": "Ca",
                "properties": {}
            },
            {
                "species": [
                    {
                        "element": "Cd",
                        "occu": 1
                    }
                ],
                "abc": [
                    0.0,
                    0.0,
                    0.0
                ],
                "xyz": [
                    0.0,
                    0.0,
                    0.0
                ],
                "label": "Cd",
                "properties": {}
            },
            {
                "species": [
                    {
                        "element": "O",
                        "occu": 1
                    }
                ],
                "abc": [
                    0.25370171,
                    0.74629829,
                    0.0
                ],
                "xyz": [
                    3.3392597700000004,
                    2.337854802425474,
                    0.0
                ],
                "label": "O",
                "properties": {}
            },
            {
                "species": [
                    {
                        "element": "O",
                        "occu": 1
                    }
                ],
                "abc": [
                    0.74620829,
                    0.74620829,
                    0.5
                ],
                "xyz": [
                    4.983566645674986,
                    0.0,
                    1.684748295
                ],
                "label": "O",
                "properties": {}
            },
            {
                "species": [
                    {
                        "element": "O",
                        "occu": 1
                    }
                ],
                "abc": [
                    0.25379171,
                    0.25379171,
                    0.5
                ],
                "xyz": [
                    1.6949528943250134,
                    0.0,
                    1.684748295
                ],
                "label": "O",
                "properties": {}
            },
            {
                "species": [
                    {
                        "element": "O",
                        "occu": 1
                    }
                ],
                "abc": [
                    0.74629829,
                    0.25370171,
                    0.0
                ],
                "xyz": [
                    3.3392597700000004,
                    -2.337854802425474,
                    0.0
                ],
                "label": "O",
                "properties": {}
            }
        ]
    },
    "spacegroup": {
        "source": "spglib",
        "symbol": "Cmmm",
        "number": 65,
        "point_group": "mmm",
        "crystal_system": "orthorhombic",
        "hall": "-C 2 2"
    },
    "dielectric": {
        "epsilon_ionic": [
            [
                11.66206501,
                -0.0,
                -1e-08
            ],
            [
                -0.0,
                12.05286742,
                3e-08
            ],
            [
                -1e-08,
                3e-08,
                11.87016245
            ]
        ],
        "epsilon_ionic_avg": 11.861698293333335,
        "epsilon_ionic_eig": [
            11.662065010000003,
            11.870162449999999,
            12.052867420000004
        ],
        "epsilon_electronic": [
            [
                4.25574737,
                0.0,
                0.0
            ],
            [
                0.0,
                4.28895893,
                0.0
            ],
            [
                0.0,
                0.0,
                4.31358445
            ]
        ],
        "epsilon_electronic_avg": 4.286096916666666,
        "epsilon_electronic_eig": [
            4.25574737,
            4.28895893,
            4.31358445
        ]
    },
    "phonon": {
        "lowest_freq": -0.046943867320697726,
        "frequency": [
            -0.046943867320697726,
            -0.018285207308095033,
            -0.010533419593085163,
            3.317744127739475,
            3.810088731021911,
            4.215382689914013,
            4.850670136860943,
            5.315206095670791,
            5.817360520610225,
            7.680030426275729,
            8.203520295491783,
            8.270129721872902,
            8.410633776007002,
            8.468306503426357,
            8.620012095908061,
            9.26274572263967,
            9.545932602238024,
            9.58036994765112,
            9.653883595289898,
            9.89767744971324,
            10.951661924734848,
            11.631825409916956,
            13.9697481886404,
            14.06642264491923
        ]
    },
    "born_effective_charge": {
        "avg_abs_trace": 2.376690833333333,
        "tensors": [
            [
                [
                    2.57293,
                    0.0,
                    0.0
                ],
                [
                    0.0,
                    2.50527,
                    0.0
                ],
                [
                    -0.0,
                    0.0,
                    2.37879
                ]
            ],
            [
                [
                    2.35399,
                    0.13494,
                    0.0
                ],
                [
                    0.13952,
                    2.36288,
                    0.0
                ],
                [
                    -0.0,
                    -0.0,
                    2.36952
                ]
            ],
            [
                [
                    2.35399,
                    -0.13494,
                    0.0
                ],
                [
                    -0.13952,
                    2.36288,
                    0.0
                ],
                [
                    -0.0,
                    0.0,
                    2.36952
                ]
            ],
            [
                [
                    2.15428,
                    0.0,
                    0.0
                ],
                [
                    0.0,
                    2.29566,
                    0.0
                ],
                [
                    -0.0,
                    -0.0,
                    2.44058
                ]
            ],
            [
                [
                    -2.29634,
                    6e-05,
                    0.0
                ],
                [
                    0.0,
                    -2.48066,
                    0.0
                ],
                [
                    -0.0,
                    -0.0002,
                    -2.32177
                ]
            ],
            [
                [
                    -2.42125,
                    0.0,
                    0.0
                ],
                [
                    3e-05,
                    -2.28274,
                    0.0
                ],
                [
                    0.00061,
                    0.0,
                    -2.45744
                ]
            ],
            [
                [
                    -2.42126,
                    0.0,
                    0.0
                ],
                [
                    -3e-05,
                    -2.28274,
                    0.0
                ],
                [
                    -0.00061,
                    0.0,
                    -2.45744
                ]
            ],
            [
                [
                    -2.29634,
                    -6e-05,
                    0.0
                ],
                [
                    0.0,
                    -2.48054,
                    0.0
                ],
                [
                    -0.0,
                    0.0002,
                    -2.32177
                ]
            ]
        ]
    },
    "band_gap": 2.6387000000000005,
    "is_direct": false,
    "formula": "Ca3CdO4"
}