{
    "mp_id": "mp-757365",
    "nelements": 3,
    "nsites": 26,
    "elements": [
        "La",
        "O",
        "Ta"
    ],
    "structure": {
        "@module": "pymatgen.core.structure",
        "@class": "Structure",
        "charge": null,
        "lattice": {
            "matrix": [
                [
                    5.57406742,
                    2.23e-06,
                    -0.00012467
                ],
                [
                    -2.78198347,
                    8.3511863,
                    0.00028858
                ],
                [
                    -2.78322819,
                    -2.78619328,
                    7.92386407
                ]
            ],
            "a": 5.574067421394636,
            "b": 8.802371539985083,
            "c": 8.8485509520466,
            "alpha": 101.49581234657721,
            "beta": 108.33429670933342,
            "gamma": 108.42414854363837,
            "volume": 368.8571373534921
        },
        "sites": [
            {
                "species": [
                    {
                        "element": "La",
                        "occu": 1
                    }
                ],
                "abc": [
                    0.67365571,
                    0.33327391,
                    0.99937765
                ],
                "xyz": [
                    0.046343788869747105,
                    -0.0012252790205256048,
                    7.918944844723617
                ],
                "label": "La",
                "properties": {}
            },
            {
                "species": [
                    {
                        "element": "La",
                        "occu": 1
                    }
                ],
                "abc": [
                    0.32634429,
                    0.66672609,
                    0.00062235
                ],
                "xyz": [
                    -0.037488028869747135,
                    5.566220529020526,
                    0.0050831352763824
                ],
                "label": "La",
                "properties": {}
            },
            {
                "species": [
                    {
                        "element": "Ta",
                        "occu": 1
                    }
                ],
                "abc": [
                    0.66830132,
                    0.08375747,
                    0.25217353
                ],
                "xyz": [
                    2.790288240058163,
                    -0.0031284683812736747,
                    1.9981296273771951
                ],
                "label": "Ta",
                "properties": {}
            },
            {
                "species": [
                    {
                        "element": "Ta",
                        "occu": 1
                    }
                ],
                "abc": [
                    0.98990369,
                    0.24071518,
                    0.73793907
                ],
                "xyz": [
                    2.7942714335023227,
                    -0.04578135698018704,
                    5.847274936915826
                ],
                "label": "Ta",
                "properties": {}
            },
            {
                "species": [
                    {
                        "element": "Ta",
                        "occu": 1
                    }
                ],
                "abc": [
                    0.33544527,
                    0.41328631,
                    0.25803446
                ],
                "xyz": [
                    0.0018700848393805591,
                    2.7324978396320763,
                    2.044707432617381
                ],
                "label": "Ta",
                "properties": {}
            },
            {
                "species": [
                    {
                        "element": "Ta",
                        "occu": 1
                    }
                ],
                "abc": [
                    0.66455473,
                    0.58671369,
                    0.74196554
                ],
                "xyz": [
                    0.006985675160620097,
                    2.832497410367923,
                    5.879320547382619
                ],
                "label": "Ta",
                "properties": {}
            },
            {
                "species": [
                    {
                        "element": "Ta",
                        "occu": 1
                    }
                ],
                "abc": [
                    0.01009631,
                    0.75928482,
                    0.26206093
                ],
                "xyz": [
                    -2.785415673502322,
                    5.610776606980187,
                    2.076753043084173
                ],
                "label": "Ta",
                "properties": {}
            },
            {
                "species": [
                    {
                        "element": "Ta",
                        "occu": 1
                    }
                ],
                "abc": [
                    0.33169868,
                    0.91624253,
                    0.74782647
                ],
                "xyz": [
                    -2.781432480058163,
                    5.568123718381274,
                    5.925898352622805
                ],
                "label": "Ta",
                "properties": {}
            },
            {
                "species": [
                    {
                        "element": "O",
                        "occu": 1
                    }
                ],
                "abc": [
                    0.20083647,
                    0.1017159,
                    0.77235911
                ],
                "xyz": [
                    -1.3131475760166769,
                    -1.3024928835912828,
                    6.120072915757884
                ],
                "label": "O",
                "properties": {}
            },
            {
                "species": [
                    {
                        "element": "O",
                        "occu": 1
                    }
                ],
                "abc": [
                    0.84069864,
                    0.16609259,
                    0.49741983
                ],
                "xyz": [
                    2.8396111662718146,
                    0.0011642492127419413,
                    3.9414302397426813
                ],
                "label": "O",
                "properties": {}
            },
            {
                "species": [
                    {
                        "element": "O",
                        "occu": 1
                    }
                ],
                "abc": [
                    0.5,
                    0.0,
                    0.0
                ],
                "xyz": [
                    2.78703371,
                    1.115e-06,
                    -6.2335e-05
                ],
                "label": "O",
                "properties": {}
            },
            {
                "species": [
                    {
                        "element": "O",
                        "occu": 1
                    }
                ],
                "abc": [
                    0.3549059,
                    0.4281027,
                    0.78252299
                ],
                "xyz": [
                    -1.390645265597679,
                    1.39490589848966,
                    6.200685100168582
                ],
                "label": "O",
                "properties": {}
            },
            {
                "species": [
                    {
                        "element": "O",
                        "occu": 1
                    }
                ],
                "abc": [
                    0.67124457,
                    0.09350707,
                    0.76315373
                ],
                "xyz": [
                    1.3573963907811284,
                    -1.3453973353204023,
                    6.047069721243199
                ],
                "label": "O",
                "properties": {}
            },
            {
                "species": [
                    {
                        "element": "O",
                        "occu": 1
                    }
                ],
                "abc": [
                    0.98365532,
                    0.25067932,
                    0.2332441
                ],
                "xyz": [
                    4.136403792939656,
                    1.4436087524090313,
                    1.8481442522589082
                ],
                "label": "O",
                "properties": {}
            },
            {
                "species": [
                    {
                        "element": "O",
                        "occu": 1
                    }
                ],
                "abc": [
                    0.49608255,
                    0.74731728,
                    0.77034288
                ],
                "xyz": [
                    -1.4578667598016275,
                    4.094662781201505,
                    6.104246082621475
                ],
                "label": "O",
                "properties": {}
            },
            {
                "species": [
                    {
                        "element": "O",
                        "occu": 1
                    }
                ],
                "abc": [
                    0.84204337,
                    0.4207606,
                    0.76407009
                ],
                "xyz": [
                    1.3964760672928866,
                    1.3850050858495,
                    6.054403978659677
                ],
                "label": "O",
                "properties": {}
            },
            {
                "species": [
                    {
                        "element": "O",
                        "occu": 1
                    }
                ],
                "abc": [
                    0.50391745,
                    0.25268272,
                    0.22965712
                ],
                "xyz": [
                    1.4667225198016278,
                    1.4703324687984964,
                    1.8197818973785245
                ],
                "label": "O",
                "properties": {}
            },
            {
                "species": [
                    {
                        "element": "O",
                        "occu": 1
                    }
                ],
                "abc": [
                    0.5,
                    0.5,
                    0.5
                ],
                "xyz": [
                    0.004427880000000162,
                    2.782497625,
                    3.96201399
                ],
                "label": "O",
                "properties": {}
            },
            {
                "species": [
                    {
                        "element": "O",
                        "occu": 1
                    }
                ],
                "abc": [
                    0.15795663,
                    0.5792394,
                    0.23592991
                ],
                "xyz": [
                    -1.3876203072928863,
                    4.1799901641505,
                    1.8696240013403236
                ],
                "label": "O",
                "properties": {}
            },
            {
                "species": [
                    {
                        "element": "O",
                        "occu": 1
                    }
                ],
                "abc": [
                    0.84663294,
                    0.64957136,
                    0.00053294
                ],
                "xyz": [
                    2.910609007815817,
                    5.423208456649181,
                    0.0043048476919048
                ],
                "label": "O",
                "properties": {}
            },
            {
                "species": [
                    {
                        "element": "O",
                        "occu": 1
                    }
                ],
                "abc": [
                    0.15336706,
                    0.35042864,
                    0.99946706
                ],
                "xyz": [
                    -2.901753247815817,
                    0.141786793350819,
                    7.9197231323080945
                ],
                "label": "O",
                "properties": {}
            },
            {
                "species": [
                    {
                        "element": "O",
                        "occu": 1
                    }
                ],
                "abc": [
                    0.01634468,
                    0.74932068,
                    0.7667559
                ],
                "xyz": [
                    -4.127548032939655,
                    4.121386497590969,
                    6.0758837277410915
                ],
                "label": "O",
                "properties": {}
            },
            {
                "species": [
                    {
                        "element": "O",
                        "occu": 1
                    }
                ],
                "abc": [
                    0.32875543,
                    0.90649293,
                    0.23684627
                ],
                "xyz": [
                    -1.3485406307811276,
                    6.910392585320402,
                    1.8769582587568001
                ],
                "label": "O",
                "properties": {}
            },
            {
                "species": [
                    {
                        "element": "O",
                        "occu": 1
                    }
                ],
                "abc": [
                    0.6450941,
                    0.5718973,
                    0.21747701
                ],
                "xyz": [
                    1.399501025597679,
                    4.170089351510341,
                    1.7233428798314177
                ],
                "label": "O",
                "properties": {}
            },
            {
                "species": [
                    {
                        "element": "O",
                        "occu": 1
                    }
                ],
                "abc": [
                    0.79916353,
                    0.8982841,
                    0.22764089
                ],
                "xyz": [
                    1.3220033360166763,
                    6.867488133591283,
                    1.8039550642421152
                ],
                "label": "O",
                "properties": {}
            },
            {
                "species": [
                    {
                        "element": "O",
                        "occu": 1
                    }
                ],
                "abc": [
                    0.15930136,
                    0.83390741,
                    0.50258017
                ],
                "xyz": [
                    -2.830755406271814,
                    5.563831000787259,
                    3.9825977402573183
                ],
                "label": "O",
                "properties": {}
            }
        ]
    },
    "spacegroup": {
        "source": "spglib",
        "symbol": "P-1",
        "number": 2,
        "point_group": "-1",
        "crystal_system": "triclinic",
        "hall": "-P 1"
    },
    "dielectric": {
        "epsilon_ionic": [
            [
                38.03499412,
                1.72569792,
                -0.0479037
            ],
            [
                1.72569792,
                35.62624522,
                0.08331791
            ],
            [
                -0.0479037,
                0.08331791,
                26.78434012
            ]
        ],
        "epsilon_ionic_avg": 33.48185982,
        "epsilon_ionic_eig": [
            38.935033250669306,
            34.72736827166518,
            26.783177937665513
        ],
        "epsilon_electronic": [
            [
                5.00339383,
                0.00034995,
                0.00536789
            ],
            [
                0.00034599,
                4.91711521,
                -0.00511725
            ],
            [
                0.00536987,
                -0.00511685,
                4.95863373
            ]
        ],
        "epsilon_electronic_avg": 4.959714256666667,
        "epsilon_electronic_eig": [
            5.004029563566369,
            4.958630782982834,
            4.9164824234508
        ]
    },
    "phonon": {
        "lowest_freq": -0.044266882843949446,
        "frequency": [
            -0.044266882843949446,
            -0.02690606995389924,
            -0.01624385539608865,
            2.0966728562643175,
            2.2767716239592084,
            2.2930202931056938,
            2.418066976975418,
            2.846574261993149,
            2.8621198465758524,
            3.0094362775666306,
            3.222990738882611,
            3.631184040323658,
            3.6362653217661123,
            3.8691010121196037,
            3.9410000314013587,
            4.2207371321887255,
            4.389532552503852,
            4.468486102519487,
            4.642695417820952,
            4.670798279356637,
            4.742538247595058,
            4.832138149542289,
            5.369933625838368,
            5.4715337812193985,
            5.872729248348981,
            6.30749051642552,
            6.456079258670077,
            6.647299515231946,
            6.693335383697231,
            6.768976308145326,
            6.880336522699243,
            6.8997258962415,
            7.070343803308821,
            7.1030869077705905,
            7.12777898997279,
            7.284359940570791,
            7.358332167485009,
            7.4772478118163495,
            7.501867260703699,
            7.689733149434578,
            7.746012053608591,
            7.937043067924307,
            7.946107221847813,
            8.118633090359928,
            8.49865701160392,
            8.702750764207874,
            8.805058183243615,
            9.892929835717888,
            9.97260839427677,
            10.187598749631334,
            10.265866145568133,
            11.533646279272531,
            11.736989207982994,
            11.756924307477728,
            12.129327672938485,
            12.324556609076401,
            12.353026674646525,
            12.548479091783623,
            13.663509221334008,
            14.018296945987831,
            16.123887943202828,
            17.978825290029274,
            17.996471954657554,
            18.13409258034644,
            18.42314995908483,
            18.555072230475087,
            18.643950410575723,
            18.924932527131148,
            18.94748501822228,
            19.47257677463649,
            19.71856553971961,
            19.833314197298304,
            20.105850034006334,
            26.203977104646746,
            26.836325339892337,
            27.112362049154658,
            28.109247370975666,
            28.14615610955102
        ]
    },
    "born_effective_charge": {
        "avg_abs_trace": 4.240899743589744,
        "tensors": [
            [
                [
                    4.22266,
                    0.05552,
                    0.005
                ],
                [
                    0.03396,
                    4.05629,
                    0.01168
                ],
                [
                    0.02093,
                    -0.01193,
                    3.67032
                ]
            ],
            [
                [
                    4.22265,
                    0.05552,
                    0.005
                ],
                [
                    0.03398,
                    4.05634,
                    0.01165
                ],
                [
                    0.02108,
                    -0.01202,
                    3.67034
                ]
            ],
            [
                [
                    7.26666,
                    0.00397,
                    -0.05404
                ],
                [
                    0.16477,
                    9.14674,
                    -0.03368
                ],
                [
                    0.08969,
                    0.00321,
                    8.54439
                ]
            ],
            [
                [
                    8.08125,
                    -0.0459,
                    0.01386
                ],
                [
                    -0.09902,
                    6.91187,
                    0.35082
                ],
                [
                    -0.13767,
                    0.32957,
                    7.7899
                ]
            ],
            [
                [
                    8.14561,
                    -0.0347,
                    0.07448
                ],
                [
                    -0.11607,
                    6.97434,
                    -0.36489
                ],
                [
                    0.06524,
                    -0.35449,
                    7.88738
                ]
            ],
            [
                [
                    8.14569,
                    -0.03466,
                    0.07436
                ],
                [
                    -0.11602,
                    6.97449,
                    -0.36493
                ],
                [
                    0.0652,
                    -0.35451,
                    7.88758
                ]
            ],
            [
                [
                    8.08119,
                    -0.0459,
                    0.01402
                ],
                [
                    -0.09905,
                    6.91183,
                    0.35107
                ],
                [
                    -0.13784,
                    0.32949,
                    7.78942
                ]
            ],
            [
                [
                    7.26676,
                    0.00402,
                    -0.05406
                ],
                [
                    0.16486,
                    9.14686,
                    -0.03372
                ],
                [
                    0.08977,
                    0.00322,
                    8.5445
                ]
            ],
            [
                [
                    -3.94839,
                    2.25659,
                    -0.36852
                ],
                [
                    2.17804,
                    -3.78651,
                    -0.2002
                ],
                [
                    -0.37226,
                    -0.14526,
                    -1.56711
                ]
            ],
            [
                [
                    -1.06091,
                    -0.00392,
                    0.07491
                ],
                [
                    -0.00975,
                    -1.11013,
                    0.0219
                ],
                [
                    -0.02198,
                    0.07108,
                    -7.25201
                ]
            ],
            [
                [
                    -1.3663,
                    0.00855,
                    0.00462
                ],
                [
                    -0.01787,
                    -2.56006,
                    -0.00594
                ],
                [
                    -6e-05,
                    0.01301,
                    -5.62468
                ]
            ],
            [
                [
                    -3.66793,
                    -1.57568,
                    -0.0214
                ],
                [
                    -1.49914,
                    -3.42282,
                    -0.02073
                ],
                [
                    -0.00745,
                    -0.01393,
                    -1.80241
                ]
            ],
            [
                [
                    -3.8868,
                    -2.296,
                    0.32299
                ],
                [
                    -2.31263,
                    -3.85878,
                    -0.16219
                ],
                [
                    0.2895,
                    -0.16193,
                    -1.51537
                ]
            ],
            [
                [
                    -3.92575,
                    -2.32906,
                    -0.30143
                ],
                [
                    -2.30941,
                    -3.86448,
                    0.19526
                ],
                [
                    -0.28358,
                    0.19066,
                    -1.55393
                ]
            ],
            [
                [
                    -3.96667,
                    2.27458,
                    0.31518
                ],
                [
                    2.24197,
                    -3.8111,
                    0.22264
                ],
                [
                    0.34268,
                    0.14239,
                    -1.53432
                ]
            ],
            [
                [
                    -3.58382,
                    1.72027,
                    0.03534
                ],
                [
                    1.74583,
                    -3.54494,
                    -0.02786
                ],
                [
                    0.01813,
                    -0.00341,
                    -1.8046
                ]
            ],
            [
                [
                    -3.96667,
                    2.27451,
                    0.31521
                ],
                [
                    2.24198,
                    -3.81102,
                    0.22266
                ],
                [
                    0.34269,
                    0.14236,
                    -1.53432
                ]
            ],
            [
                [
                    -1.07383,
                    0.00825,
                    -0.1806
                ],
                [
                    0.02041,
                    -0.97715,
                    -0.03215
                ],
                [
                    0.026,
                    -0.16731,
                    -7.30963
                ]
            ],
            [
                [
                    -3.58383,
                    1.7202,
                    0.03538
                ],
                [
                    1.74574,
                    -3.54483,
                    -0.02791
                ],
                [
                    0.0179,
                    -0.00342,
                    -1.80467
                ]
            ],
            [
                [
                    -2.45601,
                    -0.03415,
                    -0.00837
                ],
                [
                    -0.01999,
                    -1.92227,
                    0.02627
                ],
                [
                    -0.01611,
                    0.03143,
                    -4.39529
                ]
            ],
            [
                [
                    -2.45595,
                    -0.03407,
                    -0.00828
                ],
                [
                    -0.01996,
                    -1.9221,
                    0.02645
                ],
                [
                    -0.01619,
                    0.03106,
                    -4.39529
                ]
            ],
            [
                [
                    -3.92572,
                    -2.32906,
                    -0.30135
                ],
                [
                    -2.30937,
                    -3.86448,
                    0.19532
                ],
                [
                    -0.2835,
                    0.1906,
                    -1.55402
                ]
            ],
            [
                [
                    -3.88671,
                    -2.29593,
                    0.32289
                ],
                [
                    -2.3125,
                    -3.85867,
                    -0.16222
                ],
                [
                    0.2895,
                    -0.16177,
                    -1.51513
                ]
            ],
            [
                [
                    -3.66784,
                    -1.57563,
                    -0.02145
                ],
                [
                    -1.49899,
                    -3.42272,
                    -0.02089
                ],
                [
                    -0.0074,
                    -0.01392,
                    -1.80217
                ]
            ],
            [
                [
                    -3.94839,
                    2.25664,
                    -0.36847
                ],
                [
                    2.17804,
                    -3.78654,
                    -0.20019
                ],
                [
                    -0.37228,
                    -0.14538,
                    -1.56709
                ]
            ],
            [
                [
                    -1.06096,
                    -0.00395,
                    0.07475
                ],
                [
                    -0.00982,
                    -1.11018,
                    0.02178
                ],
                [
                    -0.022,
                    0.07117,
                    -7.25182
                ]
            ]
        ]
    },
    "band_gap": 2.7289999999999996,
    "is_direct": false,
    "formula": "LaTa3O9"
}