{
    "mp_id": "mp-771132",
    "nelements": 3,
    "nsites": 32,
    "elements": [
        "Ba",
        "Ga",
        "O"
    ],
    "structure": {
        "@module": "pymatgen.core.structure",
        "@class": "Structure",
        "charge": null,
        "lattice": {
            "matrix": [
                [
                    7.03358807,
                    -0.00066465,
                    -5.152e-05
                ],
                [
                    2.29907627,
                    7.9488718,
                    0.00120709
                ],
                [
                    2.75799373,
                    0.04499448,
                    9.56523957
                ]
            ],
            "a": 7.033588101592264,
            "b": 8.274679211013476,
            "c": 9.95501692361412,
            "alpha": 85.32764331780211,
            "beta": 73.91648892659269,
            "gamma": 73.8737989684976,
            "volume": 534.7991950527464
        },
        "sites": [
            {
                "species": [
                    {
                        "element": "Ba",
                        "occu": 1
                    }
                ],
                "abc": [
                    0.05334792,
                    0.05604014,
                    0.68730905
                ],
                "xyz": [
                    2.3996619001850483,
                    0.47634554412306807,
                    6.574340618886862
                ],
                "label": "Ba",
                "properties": {}
            },
            {
                "species": [
                    {
                        "element": "Ba",
                        "occu": 1
                    }
                ],
                "abc": [
                    0.17879851,
                    0.56364259,
                    0.65994287
                ],
                "xyz": [
                    4.37357066791832,
                    4.509897636765649,
                    6.313182809698093
                ],
                "label": "Ba",
                "properties": {}
            },
            {
                "species": [
                    {
                        "element": "Ba",
                        "occu": 1
                    }
                ],
                "abc": [
                    0.29821447,
                    0.21807307,
                    0.96619757
                ],
                "xyz": [
                    5.263651198857658,
                    1.7767102254543543,
                    9.242159098814415
                ],
                "label": "Ba",
                "properties": {}
            },
            {
                "species": [
                    {
                        "element": "Ba",
                        "occu": 1
                    }
                ],
                "abc": [
                    0.70178553,
                    0.78192693,
                    0.03380243
                ],
                "xyz": [
                    6.827006871142343,
                    6.216491404545645,
                    0.3242360411855832
                ],
                "label": "Ba",
                "properties": {}
            },
            {
                "species": [
                    {
                        "element": "Ba",
                        "occu": 1
                    }
                ],
                "abc": [
                    0.82120149,
                    0.43635741,
                    0.34005713
                ],
                "xyz": [
                    7.717087402081679,
                    3.483303993234352,
                    3.253212330301906
                ],
                "label": "Ba",
                "properties": {}
            },
            {
                "species": [
                    {
                        "element": "Ba",
                        "occu": 1
                    }
                ],
                "abc": [
                    0.94665208,
                    0.94395986,
                    0.31269095
                ],
                "xyz": [
                    9.690996169814952,
                    7.516856085876932,
                    2.9920545211131375
                ],
                "label": "Ba",
                "properties": {}
            },
            {
                "species": [
                    {
                        "element": "Ga",
                        "occu": 1
                    }
                ],
                "abc": [
                    0.40665721,
                    0.17927652,
                    0.30315479
                ],
                "xyz": [
                    4.108528703775132,
                    1.4384160816510687,
                    2.8999436450581078
                ],
                "label": "Ga",
                "properties": {}
            },
            {
                "species": [
                    {
                        "element": "Ga",
                        "occu": 1
                    }
                ],
                "abc": [
                    0.33355403,
                    0.55768759,
                    0.2283922
                ],
                "xyz": [
                    4.258152205931817,
                    4.443041848949979,
                    2.185282103328741
                ],
                "label": "Ga",
                "properties": {}
            },
            {
                "species": [
                    {
                        "element": "Ga",
                        "occu": 1
                    }
                ],
                "abc": [
                    0.74117361,
                    0.26610802,
                    0.06684235
                ],
                "xyz": [
                    6.009263277331984,
                    2.1177734516721776,
                    0.6396461222372639
                ],
                "label": "Ga",
                "properties": {}
            },
            {
                "species": [
                    {
                        "element": "Ga",
                        "occu": 1
                    }
                ],
                "abc": [
                    0.56447475,
                    0.18397343,
                    0.58716567
                ],
                "xyz": [
                    6.012651050970988,
                    1.488425245529188,
                    5.61657329157806
                ],
                "label": "Ga",
                "properties": {}
            },
            {
                "species": [
                    {
                        "element": "Ga",
                        "occu": 1
                    }
                ],
                "abc": [
                    0.43552525,
                    0.81602657,
                    0.41283433
                ],
                "xyz": [
                    6.0780070190290125,
                    6.504776384470812,
                    3.9498218484219394
                ],
                "label": "Ga",
                "properties": {}
            },
            {
                "species": [
                    {
                        "element": "Ga",
                        "occu": 1
                    }
                ],
                "abc": [
                    0.25882639,
                    0.73389198,
                    0.93315765
                ],
                "xyz": [
                    6.081394792668016,
                    5.875428178327823,
                    8.926749017762734
                ],
                "label": "Ga",
                "properties": {}
            },
            {
                "species": [
                    {
                        "element": "Ga",
                        "occu": 1
                    }
                ],
                "abc": [
                    0.66644597,
                    0.44231241,
                    0.7716078
                ],
                "xyz": [
                    7.8325058640681835,
                    3.550159781050021,
                    7.381113036671257
                ],
                "label": "Ga",
                "properties": {}
            },
            {
                "species": [
                    {
                        "element": "Ga",
                        "occu": 1
                    }
                ],
                "abc": [
                    0.59334279,
                    0.82072348,
                    0.69684521
                ],
                "xyz": [
                    7.982129366224869,
                    6.554785548348931,
                    6.666451494941891
                ],
                "label": "Ga",
                "properties": {}
            },
            {
                "species": [
                    {
                        "element": "O",
                        "occu": 1
                    }
                ],
                "abc": [
                    0.26110056,
                    0.02849023,
                    0.39078264
                ],
                "xyz": [
                    2.9797510665190083,
                    0.2438747070151372,
                    3.737950509767944
                ],
                "label": "O",
                "properties": {}
            },
            {
                "species": [
                    {
                        "element": "O",
                        "occu": 1
                    }
                ],
                "abc": [
                    0.22108573,
                    0.37720451,
                    0.27162081
                ],
                "xyz": [
                    3.1713763817707403,
                    3.0104247848445023,
                    2.598562049302618
                ],
                "label": "O",
                "properties": {}
            },
            {
                "species": [
                    {
                        "element": "O",
                        "occu": 1
                    }
                ],
                "abc": [
                    0.19447205,
                    0.72030368,
                    0.12527756
                ],
                "xyz": [
                    3.369384113699816,
                    5.7311091522080595,
                    1.1991693263141245
                ],
                "label": "O",
                "properties": {}
            },
            {
                "species": [
                    {
                        "element": "O",
                        "occu": 1
                    }
                ],
                "abc": [
                    0.57220489,
                    0.11644238,
                    0.12061631
                ],
                "xyz": [
                    4.625022427295722,
                    0.9306323028747142,
                    1.153834977635928
                ],
                "label": "O",
                "properties": {}
            },
            {
                "species": [
                    {
                        "element": "O",
                        "occu": 1
                    }
                ],
                "abc": [
                    0.03468744,
                    0.80075555,
                    0.86448979
                ],
                "xyz": [
                    4.469232667707656,
                    6.403977423647853,
                    8.270016744088931
                ],
                "label": "O",
                "properties": {}
            },
            {
                "species": [
                    {
                        "element": "O",
                        "occu": 1
                    }
                ],
                "abc": [
                    0.30454968,
                    0.23590203,
                    0.69805855
                ],
                "xyz": [
                    4.6096748592610375,
                    1.906361356351746,
                    6.677366329218702
                ],
                "label": "O",
                "properties": {}
            },
            {
                "species": [
                    {
                        "element": "O",
                        "occu": 1
                    }
                ],
                "abc": [
                    0.28192672,
                    0.67024592,
                    0.39451124
                ],
                "xyz": [
                    4.6119624304770745,
                    5.345262338056563,
                    3.7743890459407248
                ],
                "label": "O",
                "properties": {}
            },
            {
                "species": [
                    {
                        "element": "O",
                        "occu": 1
                    }
                ],
                "abc": [
                    0.5890347,
                    0.20788874,
                    0.39602011
                ],
                "xyz": [
                    5.71320048800414,
                    1.6699081599291699,
                    3.788247820039175
                ],
                "label": "O",
                "properties": {}
            },
            {
                "species": [
                    {
                        "element": "O",
                        "occu": 1
                    }
                ],
                "abc": [
                    0.61095867,
                    0.48564483,
                    0.13828109
                ],
                "xyz": [
                    5.795144496073817,
                    3.866144306061162,
                    1.3232464942778974
                ],
                "label": "O",
                "properties": {}
            },
            {
                "species": [
                    {
                        "element": "O",
                        "occu": 1
                    }
                ],
                "abc": [
                    0.38904133,
                    0.51435517,
                    0.86171891
                ],
                "xyz": [
                    6.295513573926184,
                    4.127057323938838,
                    8.243148645722101
                ],
                "label": "O",
                "properties": {}
            },
            {
                "species": [
                    {
                        "element": "O",
                        "occu": 1
                    }
                ],
                "abc": [
                    0.4109653,
                    0.79211126,
                    0.60397989
                ],
                "xyz": [
                    6.377457581995861,
                    6.32329347007083,
                    5.778147319960824
                ],
                "label": "O",
                "properties": {}
            },
            {
                "species": [
                    {
                        "element": "O",
                        "occu": 1
                    }
                ],
                "abc": [
                    0.71807328,
                    0.32975408,
                    0.60548876
                ],
                "xyz": [
                    7.478695639522927,
                    2.6479392919434366,
                    5.792006094059274
                ],
                "label": "O",
                "properties": {}
            },
            {
                "species": [
                    {
                        "element": "O",
                        "occu": 1
                    }
                ],
                "abc": [
                    0.69545032,
                    0.76409797,
                    0.30194145
                ],
                "xyz": [
                    7.480983210738962,
                    6.086840273648254,
                    2.8890288107812974
                ],
                "label": "O",
                "properties": {}
            },
            {
                "species": [
                    {
                        "element": "O",
                        "occu": 1
                    }
                ],
                "abc": [
                    0.96531256,
                    0.19924445,
                    0.13551021
                ],
                "xyz": [
                    7.621425402292345,
                    1.5892242063521467,
                    1.2963783959110686
                ],
                "label": "O",
                "properties": {}
            },
            {
                "species": [
                    {
                        "element": "O",
                        "occu": 1
                    }
                ],
                "abc": [
                    0.42779511,
                    0.88355762,
                    0.87938369
                ],
                "xyz": [
                    7.46563564270428,
                    7.062569327125287,
                    8.412560162364072
                ],
                "label": "O",
                "properties": {}
            },
            {
                "species": [
                    {
                        "element": "O",
                        "occu": 1
                    }
                ],
                "abc": [
                    0.80552795,
                    0.27969632,
                    0.87472244
                ],
                "xyz": [
                    8.721273956300184,
                    2.2620924777919393,
                    8.367225813685874
                ],
                "label": "O",
                "properties": {}
            },
            {
                "species": [
                    {
                        "element": "O",
                        "occu": 1
                    }
                ],
                "abc": [
                    0.77891427,
                    0.62279549,
                    0.72837919
                ],
                "xyz": [
                    8.91928168822926,
                    4.982776845155499,
                    6.967833090697381
                ],
                "label": "O",
                "properties": {}
            },
            {
                "species": [
                    {
                        "element": "O",
                        "occu": 1
                    }
                ],
                "abc": [
                    0.73889944,
                    0.97150977,
                    0.60921736
                ],
                "xyz": [
                    9.110907003480992,
                    7.749326922984863,
                    5.828444630232055
                ],
                "label": "O",
                "properties": {}
            }
        ]
    },
    "spacegroup": {
        "source": "spglib",
        "symbol": "P-1",
        "number": 2,
        "point_group": "-1",
        "crystal_system": "triclinic",
        "hall": "-P 1"
    },
    "dielectric": {
        "epsilon_ionic": [
            [
                8.04790601,
                0.78173885,
                0.30639988
            ],
            [
                0.78173885,
                6.48242749,
                0.43183416
            ],
            [
                0.30639988,
                0.43183416,
                6.17303454
            ]
        ],
        "epsilon_ionic_avg": 6.901122680000003,
        "epsilon_ionic_eig": [
            8.460597495000764,
            6.400259774187851,
            5.842510770811393
        ],
        "epsilon_electronic": [
            [
                3.46433176,
                0.01373387,
                -0.02368134
            ],
            [
                0.01373254,
                3.48752848,
                -0.01782015
            ],
            [
                -0.02367647,
                -0.01781897,
                3.49967626
            ]
        ],
        "epsilon_electronic_avg": 3.4838454999999997,
        "epsilon_electronic_eig": [
            3.5247460830811677,
            3.4517906155116562,
            3.4749998014071766
        ]
    },
    "phonon": {
        "lowest_freq": -0.08728961834606405,
        "frequency": [
            -0.08728961834606405,
            -0.032660206341955406,
            -0.02983664728256122,
            1.356447213089497,
            1.6052397589394745,
            1.7928954847911498,
            1.8363777824305223,
            2.045483105130869,
            2.113215572715014,
            2.2171846277091314,
            2.3502337755398304,
            2.4081135538482634,
            2.5566027242126643,
            2.6693314963788333,
            2.700751967303341,
            2.929114700286843,
            3.0376546553440202,
            3.05383920824063,
            3.1069357532543767,
            3.166888299860071,
            3.3063356271184086,
            3.399211025559466,
            3.4981430601307357,
            3.5931169260210387,
            3.9818802710720744,
            4.208945907472269,
            4.2283906976543735,
            4.328550475848048,
            4.625135166256364,
            4.67171999501163,
            4.708961119377461,
            4.970927799713932,
            5.0735400025433055,
            5.168658277046591,
            5.293025424700646,
            5.507044731674822,
            5.637868437477,
            5.664180046591843,
            5.898123447805204,
            5.994490956822795,
            6.068963172184335,
            6.319652802755933,
            6.448717007493847,
            6.554406066772716,
            6.872160005611177,
            6.897972847631305,
            7.140890215967291,
            7.189936429375345,
            7.604172488512643,
            7.6713021984842635,
            7.8067509609713985,
            7.985278287040278,
            8.008353543215541,
            8.137108776794696,
            8.370582220532139,
            8.569172537746994,
            8.718266264325091,
            9.118230733287685,
            9.403854399207347,
            9.473187392281632,
            9.984484321598599,
            10.652462568785758,
            10.916091178412096,
            11.182834289840352,
            12.90239092851133,
            12.915265452807008,
            13.090492598236928,
            13.28023385912797,
            13.811088277461407,
            13.814220173775887,
            13.95883006986082,
            14.176814056453637,
            14.442563265814973,
            14.582149196715879,
            14.785471172071546,
            15.091484566157195,
            15.589928643241736,
            15.692115785384527,
            16.52411076612897,
            16.524269763415415,
            17.903293148133123,
            17.922564447289638,
            18.164795899868587,
            18.335164603563808,
            18.860032702988764,
            18.87636043831365,
            19.040642985749106,
            19.096873863853705,
            19.20792258728969,
            20.319668537601938,
            20.330835110395824,
            20.542442045799607,
            21.382031084933136,
            21.467355273043403,
            21.653456236045006,
            21.725206844032492
        ]
    },
    "born_effective_charge": {
        "avg_abs_trace": 2.26552125,
        "tensors": [
            [
                [
                    2.8578,
                    -0.15417,
                    -0.18015
                ],
                [
                    -0.08198,
                    2.70299,
                    0.08109
                ],
                [
                    -0.21106,
                    0.10527,
                    2.39405
                ]
            ],
            [
                [
                    2.63869,
                    -0.00222,
                    -0.05752
                ],
                [
                    -0.01203,
                    2.62977,
                    0.01903
                ],
                [
                    -0.04066,
                    0.0196,
                    2.46107
                ]
            ],
            [
                [
                    2.59586,
                    0.252,
                    -0.09647
                ],
                [
                    0.20483,
                    2.31438,
                    -0.01683
                ],
                [
                    0.00473,
                    -0.06706,
                    2.88471
                ]
            ],
            [
                [
                    2.59571,
                    0.25198,
                    -0.09645
                ],
                [
                    0.20498,
                    2.31434,
                    -0.01683
                ],
                [
                    0.00462,
                    -0.067,
                    2.88457
                ]
            ],
            [
                [
                    2.63888,
                    -0.00225,
                    -0.05741
                ],
                [
                    -0.01203,
                    2.6298,
                    0.01904
                ],
                [
                    -0.04083,
                    0.01954,
                    2.46093
                ]
            ],
            [
                [
                    2.85793,
                    -0.15436,
                    -0.1802
                ],
                [
                    -0.08191,
                    2.70297,
                    0.08099
                ],
                [
                    -0.21117,
                    0.10533,
                    2.39419
                ]
            ],
            [
                [
                    2.48343,
                    0.02656,
                    -0.00789
                ],
                [
                    0.05378,
                    2.70205,
                    -0.45401
                ],
                [
                    0.15901,
                    -0.2281,
                    2.6588
                ]
            ],
            [
                [
                    2.39954,
                    0.02085,
                    0.1915
                ],
                [
                    -0.05351,
                    2.86054,
                    0.19402
                ],
                [
                    0.09158,
                    -0.14143,
                    2.55559
                ]
            ],
            [
                [
                    2.52315,
                    -0.08071,
                    0.19216
                ],
                [
                    0.00622,
                    2.40304,
                    -0.10318
                ],
                [
                    -0.05388,
                    -0.00732,
                    2.76242
                ]
            ],
            [
                [
                    2.29999,
                    0.07648,
                    -0.06511
                ],
                [
                    -0.01265,
                    2.56449,
                    0.07608
                ],
                [
                    0.03064,
                    0.09466,
                    2.68014
                ]
            ],
            [
                [
                    2.29959,
                    0.07643,
                    -0.065
                ],
                [
                    -0.01267,
                    2.56449,
                    0.07607
                ],
                [
                    0.03074,
                    0.0948,
                    2.68005
                ]
            ],
            [
                [
                    2.52301,
                    -0.08081,
                    0.19162
                ],
                [
                    0.00652,
                    2.40319,
                    -0.10346
                ],
                [
                    -0.05377,
                    -0.00714,
                    2.76258
                ]
            ],
            [
                [
                    2.3991,
                    0.02108,
                    0.19094
                ],
                [
                    -0.05359,
                    2.86064,
                    0.19397
                ],
                [
                    0.09185,
                    -0.14151,
                    2.55585
                ]
            ],
            [
                [
                    2.48347,
                    0.02676,
                    -0.00836
                ],
                [
                    0.05361,
                    2.70207,
                    -0.45358
                ],
                [
                    0.15912,
                    -0.22817,
                    2.65916
                ]
            ],
            [
                [
                    -1.96926,
                    -0.15452,
                    0.16914
                ],
                [
                    -0.09619,
                    -2.28634,
                    0.35206
                ],
                [
                    0.10306,
                    0.31402,
                    -1.7214
                ]
            ],
            [
                [
                    -2.18895,
                    0.04411,
                    0.13676
                ],
                [
                    0.04168,
                    -2.29131,
                    0.17547
                ],
                [
                    0.10027,
                    0.16228,
                    -1.39353
                ]
            ],
            [
                [
                    -1.61362,
                    0.44517,
                    -0.16112
                ],
                [
                    0.38407,
                    -1.8128,
                    0.06393
                ],
                [
                    -0.1433,
                    0.17631,
                    -2.59291
                ]
            ],
            [
                [
                    -1.93485,
                    -0.21657,
                    -0.00423
                ],
                [
                    -0.24212,
                    -1.98188,
                    -0.02834
                ],
                [
                    0.07002,
                    0.00465,
                    -2.10685
                ]
            ],
            [
                [
                    -2.37584,
                    0.15747,
                    0.20601
                ],
                [
                    0.1733,
                    -1.81294,
                    0.13571
                ],
                [
                    0.26088,
                    0.08136,
                    -2.08993
                ]
            ],
            [
                [
                    -2.02259,
                    -0.15218,
                    0.20925
                ],
                [
                    -0.10204,
                    -2.12195,
                    -0.05276
                ],
                [
                    0.22145,
                    -0.06189,
                    -2.02355
                ]
            ],
            [
                [
                    -1.81796,
                    -0.33855,
                    -0.27643
                ],
                [
                    -0.34352,
                    -1.94405,
                    -0.31438
                ],
                [
                    -0.3007,
                    -0.25882,
                    -2.31482
                ]
            ],
            [
                [
                    -1.99452,
                    -0.11353,
                    -0.35571
                ],
                [
                    -0.12423,
                    -1.61128,
                    0.0608
                ],
                [
                    -0.41019,
                    0.01358,
                    -2.44011
                ]
            ],
            [
                [
                    -1.88056,
                    0.18954,
                    0.10025
                ],
                [
                    0.20399,
                    -2.31464,
                    -0.1883
                ],
                [
                    0.11811,
                    -0.20699,
                    -1.71379
                ]
            ],
            [
                [
                    -1.88058,
                    0.18968,
                    0.10021
                ],
                [
                    0.20404,
                    -2.31461,
                    -0.18825
                ],
                [
                    0.11811,
                    -0.20714,
                    -1.71374
                ]
            ],
            [
                [
                    -1.99431,
                    -0.1133,
                    -0.3558
                ],
                [
                    -0.12411,
                    -1.61125,
                    0.06073
                ],
                [
                    -0.4103,
                    0.0134,
                    -2.44
                ]
            ],
            [
                [
                    -1.81828,
                    -0.33865,
                    -0.27619
                ],
                [
                    -0.34342,
                    -1.94402,
                    -0.31446
                ],
                [
                    -0.30047,
                    -0.25868,
                    -2.31504
                ]
            ],
            [
                [
                    -2.02271,
                    -0.15212,
                    0.20934
                ],
                [
                    -0.10206,
                    -2.12191,
                    -0.05282
                ],
                [
                    0.22146,
                    -0.06192,
                    -2.02358
                ]
            ],
            [
                [
                    -2.37573,
                    0.15739,
                    0.206
                ],
                [
                    0.17342,
                    -1.81297,
                    0.13577
                ],
                [
                    0.26094,
                    0.08126,
                    -2.09003
                ]
            ],
            [
                [
                    -1.9347,
                    -0.21599,
                    -0.00366
                ],
                [
                    -0.24229,
                    -1.98234,
                    -0.02883
                ],
                [
                    0.06988,
                    0.00418,
                    -2.10726
                ]
            ],
            [
                [
                    -1.61347,
                    0.4449,
                    -0.16139
                ],
                [
                    0.38427,
                    -1.81299,
                    0.06375
                ],
                [
                    -0.14347,
                    0.1766,
                    -2.59272
                ]
            ],
            [
                [
                    -2.18872,
                    0.04397,
                    0.13667
                ],
                [
                    0.04173,
                    -2.29119,
                    0.17545
                ],
                [
                    0.10023,
                    0.16237,
                    -1.39355
                ]
            ],
            [
                [
                    -1.9695,
                    -0.15443,
                    0.16922
                ],
                [
                    -0.0961,
                    -2.28629,
                    0.35208
                ],
                [
                    0.10307,
                    0.31396,
                    -1.7213
                ]
            ]
        ]
    },
    "band_gap": 2.9814000000000003,
    "is_direct": false,
    "formula": "Ba3Ga4O9"
}