{
    "mp_id": "mp-754535",
    "nelements": 3,
    "nsites": 8,
    "elements": [
        "Ag",
        "La",
        "O"
    ],
    "structure": {
        "@module": "pymatgen.core.structure",
        "@class": "Structure",
        "charge": null,
        "lattice": {
            "matrix": [
                [
                    3.78580412,
                    0.0,
                    0.0
                ],
                [
                    -1.89290206,
                    3.27860282,
                    0.0
                ],
                [
                    0.0,
                    0.0,
                    12.17053354
                ]
            ],
            "a": 3.78580412,
            "b": 3.7858043610393017,
            "c": 12.17053354,
            "alpha": 90.0,
            "beta": 90.0,
            "gamma": 119.99999789383838,
            "volume": 151.0624643139193
        },
        "sites": [
            {
                "species": [
                    {
                        "element": "La",
                        "occu": 1
                    }
                ],
                "abc": [
                    0.0,
                    0.0,
                    0.0
                ],
                "xyz": [
                    0.0,
                    0.0,
                    0.0
                ],
                "label": "La",
                "properties": {}
            },
            {
                "species": [
                    {
                        "element": "La",
                        "occu": 1
                    }
                ],
                "abc": [
                    0.0,
                    0.0,
                    0.5
                ],
                "xyz": [
                    0.0,
                    0.0,
                    6.08526677
                ],
                "label": "La",
                "properties": {}
            },
            {
                "species": [
                    {
                        "element": "Ag",
                        "occu": 1
                    }
                ],
                "abc": [
                    0.333333,
                    0.666667,
                    0.25
                ],
                "xyz": [
                    -1.8929020599856017e-06,
                    2.18573630620094,
                    3.042633385
                ],
                "label": "Ag",
                "properties": {}
            },
            {
                "species": [
                    {
                        "element": "Ag",
                        "occu": 1
                    }
                ],
                "abc": [
                    0.666667,
                    0.333333,
                    0.75
                ],
                "xyz": [
                    1.89290395290206,
                    1.09286651379906,
                    9.127900154999999
                ],
                "label": "Ag",
                "properties": {}
            },
            {
                "species": [
                    {
                        "element": "O",
                        "occu": 1
                    }
                ],
                "abc": [
                    0.333333,
                    0.666667,
                    0.08454953
                ],
                "xyz": [
                    -1.8929020599856017e-06,
                    2.18573630620094,
                    1.0290128906562361
                ],
                "label": "O",
                "properties": {}
            },
            {
                "species": [
                    {
                        "element": "O",
                        "occu": 1
                    }
                ],
                "abc": [
                    0.333333,
                    0.666667,
                    0.41545047
                ],
                "xyz": [
                    -1.8929020599856017e-06,
                    2.18573630620094,
                    5.056253879343764
                ],
                "label": "O",
                "properties": {}
            },
            {
                "species": [
                    {
                        "element": "O",
                        "occu": 1
                    }
                ],
                "abc": [
                    0.666667,
                    0.333333,
                    0.58454953
                ],
                "xyz": [
                    1.89290395290206,
                    1.09286651379906,
                    7.114279660656235
                ],
                "label": "O",
                "properties": {}
            },
            {
                "species": [
                    {
                        "element": "O",
                        "occu": 1
                    }
                ],
                "abc": [
                    0.666667,
                    0.333333,
                    0.91545047
                ],
                "xyz": [
                    1.89290395290206,
                    1.09286651379906,
                    11.141520649343763
                ],
                "label": "O",
                "properties": {}
            }
        ]
    },
    "spacegroup": {
        "source": "spglib",
        "symbol": "P6_3/mmc",
        "number": 194,
        "point_group": "6/mmm",
        "crystal_system": "hexagonal",
        "hall": "-P 6c 2c"
    },
    "dielectric": {
        "epsilon_ionic": [
            [
                8.41496954,
                -9e-08,
                -0.0
            ],
            [
                -9e-08,
                8.42747958,
                0.0
            ],
            [
                -0.0,
                0.0,
                3.29494784
            ]
        ],
        "epsilon_ionic_avg": 6.712465653333332,
        "epsilon_ionic_eig": [
            8.414969539999353,
            8.427479580000647,
            3.29494784
        ],
        "epsilon_electronic": [
            [
                4.60632144,
                -0.0,
                0.0
            ],
            [
                0.0,
                4.60632302,
                0.0
            ],
            [
                0.0,
                -0.0,
                4.43791554
            ]
        ],
        "epsilon_electronic_avg": 4.550186666666666,
        "epsilon_electronic_eig": [
            4.60632144,
            4.60632302,
            4.43791554
        ]
    },
    "phonon": {
        "lowest_freq": -0.04280383090909119,
        "frequency": [
            -0.04280383090909119,
            -0.04280382357203306,
            -0.013858874679340117,
            1.0410425871442452,
            1.0410427667392848,
            2.069097841114572,
            2.0690981954720686,
            2.5485861075749376,
            2.5485865439033395,
            3.922853116404921,
            4.456615683807537,
            5.421886842548725,
            7.436890224821711,
            7.436891506487032,
            8.11683712130579,
            8.116838506377944,
            9.061813102041326,
            9.061814666320597,
            9.615696110636469,
            9.615697762727697,
            15.166548175280774,
            16.633561065352573,
            16.83046972601062,
            18.305604080645477
        ]
    },
    "born_effective_charge": {
        "avg_abs_trace": 2.3407825,
        "tensors": [
            [
                [
                    4.56901,
                    0.0,
                    0.0
                ],
                [
                    0.0,
                    4.57205,
                    3e-05
                ],
                [
                    -0.0,
                    0.0,
                    3.08929
                ]
            ],
            [
                [
                    4.56901,
                    0.0,
                    0.0
                ],
                [
                    0.0,
                    4.57205,
                    -3e-05
                ],
                [
                    0.0,
                    0.0,
                    3.08929
                ]
            ],
            [
                [
                    0.09536,
                    -0.00015,
                    0.0
                ],
                [
                    -0.0,
                    0.09724,
                    -0.0
                ],
                [
                    0.0,
                    0.0,
                    1.6218
                ]
            ],
            [
                [
                    0.09536,
                    0.00015,
                    0.0
                ],
                [
                    0.0,
                    0.09714,
                    -0.0
                ],
                [
                    -0.0,
                    0.0,
                    1.6218
                ]
            ],
            [
                [
                    -2.33218,
                    -0.00058,
                    2e-05
                ],
                [
                    -0.0,
                    -2.33449,
                    -3e-05
                ],
                [
                    -0.0,
                    0.0,
                    -2.35555
                ]
            ],
            [
                [
                    -2.33218,
                    -0.00058,
                    -2e-05
                ],
                [
                    -0.0,
                    -2.33449,
                    3e-05
                ],
                [
                    0.0,
                    -0.0,
                    -2.35554
                ]
            ],
            [
                [
                    -2.33218,
                    0.00058,
                    2e-05
                ],
                [
                    0.0,
                    -2.33475,
                    -3e-05
                ],
                [
                    0.0,
                    -0.0,
                    -2.35555
                ]
            ],
            [
                [
                    -2.33218,
                    0.00058,
                    -2e-05
                ],
                [
                    0.0,
                    -2.33475,
                    3e-05
                ],
                [
                    -0.0,
                    0.0,
                    -2.35554
                ]
            ]
        ]
    },
    "band_gap": 3.0088,
    "is_direct": false,
    "formula": "LaAgO2"
}