{
    "mp_id": "mp-7181",
    "nelements": 4,
    "nsites": 16,
    "elements": [
        "Cs",
        "O",
        "Sr",
        "Ta"
    ],
    "structure": {
        "@module": "pymatgen.core.structure",
        "@class": "Structure",
        "charge": null,
        "lattice": {
            "matrix": [
                [
                    3.96043562,
                    0.0,
                    0.0
                ],
                [
                    0.0,
                    3.96043562,
                    0.0
                ],
                [
                    0.0,
                    0.0,
                    15.30744996
                ]
            ],
            "a": 3.96043562,
            "b": 3.96043562,
            "c": 15.30744996,
            "alpha": 90.0,
            "beta": 90.0,
            "gamma": 90.0,
            "volume": 240.09812258985542
        },
        "sites": [
            {
                "species": [
                    {
                        "element": "Cs",
                        "occu": 1
                    }
                ],
                "abc": [
                    0.5,
                    0.5,
                    0.5
                ],
                "xyz": [
                    1.98021781,
                    1.98021781,
                    7.65372498
                ],
                "label": "Cs",
                "properties": {}
            },
            {
                "species": [
                    {
                        "element": "Sr",
                        "occu": 1
                    }
                ],
                "abc": [
                    0.5,
                    0.5,
                    0.85439837
                ],
                "xyz": [
                    1.98021781,
                    1.98021781,
                    13.078660294680564
                ],
                "label": "Sr",
                "properties": {}
            },
            {
                "species": [
                    {
                        "element": "Sr",
                        "occu": 1
                    }
                ],
                "abc": [
                    0.5,
                    0.5,
                    0.14560163
                ],
                "xyz": [
                    1.98021781,
                    1.98021781,
                    2.228789665319435
                ],
                "label": "Sr",
                "properties": {}
            },
            {
                "species": [
                    {
                        "element": "Ta",
                        "occu": 1
                    }
                ],
                "abc": [
                    0.0,
                    0.0,
                    0.0
                ],
                "xyz": [
                    0.0,
                    0.0,
                    0.0
                ],
                "label": "Ta",
                "properties": {}
            },
            {
                "species": [
                    {
                        "element": "Ta",
                        "occu": 1
                    }
                ],
                "abc": [
                    0.0,
                    0.0,
                    0.28033192
                ],
                "xyz": [
                    0.0,
                    0.0,
                    4.2911668375907235
                ],
                "label": "Ta",
                "properties": {}
            },
            {
                "species": [
                    {
                        "element": "Ta",
                        "occu": 1
                    }
                ],
                "abc": [
                    0.0,
                    0.0,
                    0.71966808
                ],
                "xyz": [
                    0.0,
                    0.0,
                    11.016283122409277
                ],
                "label": "Ta",
                "properties": {}
            },
            {
                "species": [
                    {
                        "element": "O",
                        "occu": 1
                    }
                ],
                "abc": [
                    0.0,
                    0.0,
                    0.60325671
                ],
                "xyz": [
                    0.0,
                    0.0,
                    9.234321901359232
                ],
                "label": "O",
                "properties": {}
            },
            {
                "species": [
                    {
                        "element": "O",
                        "occu": 1
                    }
                ],
                "abc": [
                    0.0,
                    0.0,
                    0.39674329
                ],
                "xyz": [
                    0.0,
                    0.0,
                    6.073128058640768
                ],
                "label": "O",
                "properties": {}
            },
            {
                "species": [
                    {
                        "element": "O",
                        "occu": 1
                    }
                ],
                "abc": [
                    0.5,
                    0.0,
                    0.74536715
                ],
                "xyz": [
                    1.98021781,
                    0.0,
                    11.409670350452814
                ],
                "label": "O",
                "properties": {}
            },
            {
                "species": [
                    {
                        "element": "O",
                        "occu": 1
                    }
                ],
                "abc": [
                    0.0,
                    0.5,
                    0.74536715
                ],
                "xyz": [
                    0.0,
                    1.98021781,
                    11.409670350452814
                ],
                "label": "O",
                "properties": {}
            },
            {
                "species": [
                    {
                        "element": "O",
                        "occu": 1
                    }
                ],
                "abc": [
                    0.5,
                    0.0,
                    0.25463285
                ],
                "xyz": [
                    1.98021781,
                    0.0,
                    3.8977796095471864
                ],
                "label": "O",
                "properties": {}
            },
            {
                "species": [
                    {
                        "element": "O",
                        "occu": 1
                    }
                ],
                "abc": [
                    0.0,
                    0.5,
                    0.25463285
                ],
                "xyz": [
                    0.0,
                    1.98021781,
                    3.8977796095471864
                ],
                "label": "O",
                "properties": {}
            },
            {
                "species": [
                    {
                        "element": "O",
                        "occu": 1
                    }
                ],
                "abc": [
                    0.0,
                    0.5,
                    0.0
                ],
                "xyz": [
                    0.0,
                    1.98021781,
                    0.0
                ],
                "label": "O",
                "properties": {}
            },
            {
                "species": [
                    {
                        "element": "O",
                        "occu": 1
                    }
                ],
                "abc": [
                    0.5,
                    0.0,
                    0.0
                ],
                "xyz": [
                    1.98021781,
                    0.0,
                    0.0
                ],
                "label": "O",
                "properties": {}
            },
            {
                "species": [
                    {
                        "element": "O",
                        "occu": 1
                    }
                ],
                "abc": [
                    0.0,
                    0.0,
                    0.12809436
                ],
                "xyz": [
                    0.0,
                    0.0,
                    1.9607980058582255
                ],
                "label": "O",
                "properties": {}
            },
            {
                "species": [
                    {
                        "element": "O",
                        "occu": 1
                    }
                ],
                "abc": [
                    0.0,
                    0.0,
                    0.87190564
                ],
                "xyz": [
                    0.0,
                    0.0,
                    13.346651954141775
                ],
                "label": "O",
                "properties": {}
            }
        ]
    },
    "spacegroup": {
        "source": "spglib",
        "symbol": "P4/mmm",
        "number": 123,
        "point_group": "4/mmm",
        "crystal_system": "tetragonal",
        "hall": "-P 4 2"
    },
    "dielectric": {
        "epsilon_ionic": [
            [
                22.61795641,
                -1.5e-07,
                -5e-08
            ],
            [
                -1.5e-07,
                22.61803422,
                -5e-08
            ],
            [
                -5e-08,
                -5e-08,
                12.23761815
            ]
        ],
        "epsilon_ionic_avg": 19.15786959333333,
        "epsilon_ionic_eig": [
            22.617956409710843,
            22.618034220289154,
            12.237618149999998
        ],
        "epsilon_electronic": [
            [
                4.19665932,
                0.0,
                0.0
            ],
            [
                0.0,
                4.19665932,
                0.0
            ],
            [
                0.0,
                -0.0,
                3.97425334
            ]
        ],
        "epsilon_electronic_avg": 4.122523993333334,
        "epsilon_electronic_eig": [
            4.19665932,
            4.19665932,
            3.97425334
        ]
    },
    "phonon": {
        "lowest_freq": -0.09707009264881912,
        "frequency": [
            -0.09707009264881912,
            -0.09707009264881912,
            -0.03234761705547825,
            1.0313138813040694,
            1.0313138813040694,
            1.5444435749697443,
            1.5444435749697443,
            1.5558054542785724,
            2.3558740647924745,
            2.3558740647924745,
            2.5002845060165906,
            3.385679522860285,
            3.385679522860285,
            3.5397371975890084,
            3.5397371975890084,
            3.8628038065377863,
            4.679061780591056,
            4.950898634420459,
            6.051611868406574,
            6.051611868406574,
            6.540032782099742,
            6.540032782099742,
            6.591652047115638,
            6.591652047115638,
            7.135108755479106,
            7.135108755479106,
            7.377836388427158,
            8.159298018104124,
            8.159298018104124,
            8.416051144992409,
            8.416051144992409,
            9.02247641975273,
            9.02247641975273,
            9.026332346951216,
            9.10742145986088,
            11.050545804168395,
            12.463834632281392,
            13.086737447539644,
            18.150243221943292,
            18.150243221943292,
            18.1700530637255,
            18.1700530637255,
            18.81047009486533,
            19.90093561151322,
            19.90093561151322,
            21.833401682519742,
            24.768457078419782,
            25.72774723518987
        ]
    },
    "born_effective_charge": {
        "avg_abs_trace": 3.1909175,
        "tensors": [
            [
                [
                    1.374,
                    -0.0,
                    -0.0
                ],
                [
                    -0.0,
                    1.37404,
                    0.0
                ],
                [
                    0.0,
                    0.0,
                    1.84877
                ]
            ],
            [
                [
                    2.53938,
                    -0.0,
                    -0.00012
                ],
                [
                    -0.0,
                    2.53936,
                    -0.00012
                ],
                [
                    0.0,
                    -0.0,
                    2.11883
                ]
            ],
            [
                [
                    2.53938,
                    -0.0,
                    0.00012
                ],
                [
                    -0.0,
                    2.53936,
                    0.00012
                ],
                [
                    0.0,
                    0.0,
                    2.11805
                ]
            ],
            [
                [
                    7.51539,
                    -0.0,
                    -0.0
                ],
                [
                    -0.0,
                    7.51538,
                    0.0
                ],
                [
                    -0.0,
                    0.0,
                    5.71788
                ]
            ],
            [
                [
                    6.4993,
                    -0.0,
                    -0.00112
                ],
                [
                    -0.0,
                    6.4993,
                    -0.00113
                ],
                [
                    0.0,
                    0.0,
                    5.42254
                ]
            ],
            [
                [
                    6.4993,
                    -0.0,
                    0.00112
                ],
                [
                    -0.0,
                    6.4993,
                    0.00113
                ],
                [
                    0.0,
                    0.0,
                    5.42246
                ]
            ],
            [
                [
                    -1.13919,
                    -0.0,
                    -0.00027
                ],
                [
                    -0.0,
                    -1.13919,
                    -0.00027
                ],
                [
                    0.0,
                    0.0,
                    -3.53572
                ]
            ],
            [
                [
                    -1.13919,
                    -0.0,
                    0.00027
                ],
                [
                    -0.0,
                    -1.13919,
                    0.00027
                ],
                [
                    0.0,
                    0.0,
                    -3.53356
                ]
            ],
            [
                [
                    -5.01456,
                    0.0,
                    -0.00199
                ],
                [
                    0.0,
                    -1.73807,
                    0.00019
                ],
                [
                    -0.0,
                    0.0,
                    -1.34718
                ]
            ],
            [
                [
                    -1.73806,
                    -0.0,
                    0.00019
                ],
                [
                    -0.0,
                    -5.01455,
                    -0.00199
                ],
                [
                    0.0,
                    0.0,
                    -1.34718
                ]
            ],
            [
                [
                    -5.01456,
                    0.0,
                    0.00199
                ],
                [
                    0.0,
                    -1.73807,
                    -0.00019
                ],
                [
                    0.0,
                    -0.0,
                    -1.34746
                ]
            ],
            [
                [
                    -1.73806,
                    -0.0,
                    -0.00019
                ],
                [
                    -0.0,
                    -5.01455,
                    0.00199
                ],
                [
                    0.0,
                    0.0,
                    -1.34746
                ]
            ],
            [
                [
                    -1.66718,
                    -0.0,
                    -0.0
                ],
                [
                    -0.0,
                    -5.70316,
                    0.0
                ],
                [
                    0.0,
                    0.0,
                    -1.25488
                ]
            ],
            [
                [
                    -5.70317,
                    -0.0,
                    -0.0
                ],
                [
                    -0.0,
                    -1.66719,
                    0.0
                ],
                [
                    0.0,
                    0.0,
                    -1.25488
                ]
            ],
            [
                [
                    -1.90639,
                    0.0,
                    0.00049
                ],
                [
                    0.0,
                    -1.90639,
                    0.00049
                ],
                [
                    -0.0,
                    -0.0,
                    -3.84096
                ]
            ],
            [
                [
                    -1.90639,
                    0.0,
                    -0.00049
                ],
                [
                    0.0,
                    -1.90639,
                    -0.00049
                ],
                [
                    0.0,
                    0.0,
                    -3.83924
                ]
            ]
        ]
    },
    "band_gap": 2.3333,
    "is_direct": false,
    "formula": "CsSr2Ta3O10"
}