{
    "mp_id": "mp-7972",
    "nelements": 3,
    "nsites": 4,
    "elements": [
        "La",
        "O",
        "Rb"
    ],
    "structure": {
        "@module": "pymatgen.core.structure",
        "@class": "Structure",
        "charge": null,
        "lattice": {
            "matrix": [
                [
                    1.85564443,
                    1.07135616,
                    6.46816424
                ],
                [
                    -1.85564443,
                    1.07135616,
                    6.46816424
                ],
                [
                    0.0,
                    -2.14271332,
                    6.46816424
                ]
            ],
            "a": 6.813836577712644,
            "b": 6.813836577712644,
            "c": 6.813836585017299,
            "alpha": 31.60648274291173,
            "beta": 31.60648274291173,
            "gamma": 31.606489976934593,
            "volume": 77.15446388893417
        },
        "sites": [
            {
                "species": [
                    {
                        "element": "Rb",
                        "occu": 1
                    }
                ],
                "abc": [
                    0.0,
                    0.0,
                    0.0
                ],
                "xyz": [
                    0.0,
                    0.0,
                    0.0
                ],
                "label": "Rb",
                "properties": {}
            },
            {
                "species": [
                    {
                        "element": "La",
                        "occu": 1
                    }
                ],
                "abc": [
                    0.5,
                    0.5,
                    0.5
                ],
                "xyz": [
                    0.0,
                    -5.00000000069889e-07,
                    9.70224636
                ],
                "label": "La",
                "properties": {}
            },
            {
                "species": [
                    {
                        "element": "O",
                        "occu": 1
                    }
                ],
                "abc": [
                    0.7726935,
                    0.7726935,
                    0.7726935
                ],
                "xyz": [
                    0.0,
                    -7.726935000729185e-07,
                    14.993725395541322
                ],
                "label": "O",
                "properties": {}
            },
            {
                "species": [
                    {
                        "element": "O",
                        "occu": 1
                    }
                ],
                "abc": [
                    0.2273065,
                    0.2273065,
                    0.2273065
                ],
                "xyz": [
                    0.0,
                    -2.2730650001134833e-07,
                    4.41076732445868
                ],
                "label": "O",
                "properties": {}
            }
        ]
    },
    "spacegroup": {
        "source": "spglib",
        "symbol": "R-3m",
        "number": 166,
        "point_group": "-3m",
        "crystal_system": "trigonal",
        "hall": "-R 3 2\""
    },
    "dielectric": {
        "epsilon_ionic": [
            [
                19.12093967,
                -0.0,
                -0.0
            ],
            [
                -0.0,
                19.1187227,
                -8.312e-05
            ],
            [
                -0.0,
                -8.312e-05,
                8.34143087
            ]
        ],
        "epsilon_ionic_avg": 15.527031079999999,
        "epsilon_ionic_eig": [
            8.341430869358936,
            19.11872270064106,
            19.12093967
        ],
        "epsilon_electronic": [
            [
                4.04213936,
                0.0,
                0.0
            ],
            [
                0.0,
                4.04214015,
                1.8e-07
            ],
            [
                0.0,
                1.8e-07,
                3.41111609
            ]
        ],
        "epsilon_electronic_avg": 3.8317985333333335,
        "epsilon_electronic_eig": [
            3.4111160899999486,
            4.042140150000051,
            4.04213936
        ]
    },
    "phonon": {
        "lowest_freq": -0.03764645830268919,
        "frequency": [
            -0.03764645830268919,
            -0.037646454667179065,
            -0.012199205040857095,
            1.8787437936029567,
            1.8787439757247386,
            3.8367483037807095,
            5.909530012037729,
            5.909530591034987,
            8.296159165474359,
            8.296159975608681,
            8.402545545094261,
            12.305229352155589
        ]
    },
    "born_effective_charge": {
        "avg_abs_trace": 2.5452708333333334,
        "tensors": [
            [
                [
                    1.06929,
                    -0.0,
                    -0.0
                ],
                [
                    0.0,
                    1.06945,
                    6e-05
                ],
                [
                    0.0,
                    0.0,
                    1.6031
                ]
            ],
            [
                [
                    4.51173,
                    -0.0,
                    -0.0
                ],
                [
                    0.0,
                    4.51118,
                    -0.00017
                ],
                [
                    0.0,
                    -0.0,
                    2.50688
                ]
            ],
            [
                [
                    -2.79051,
                    -0.00025,
                    -0.00027
                ],
                [
                    0.0,
                    -2.79029,
                    4e-05
                ],
                [
                    0.0,
                    0.0,
                    -2.05498
                ]
            ],
            [
                [
                    -2.79051,
                    0.00025,
                    0.00027
                ],
                [
                    0.0,
                    -2.79033,
                    7e-05
                ],
                [
                    0.0,
                    0.0,
                    -2.055
                ]
            ]
        ]
    },
    "band_gap": 3.3582999999999994,
    "is_direct": true,
    "formula": "RbLaO2"
}