{
    "mp_id": "mp-760483",
    "nelements": 3,
    "nsites": 12,
    "elements": [
        "Li",
        "O",
        "Pd"
    ],
    "structure": {
        "@module": "pymatgen.core.structure",
        "@class": "Structure",
        "charge": null,
        "lattice": {
            "matrix": [
                [
                    2.53443347,
                    -4.382598,
                    -0.00034775
                ],
                [
                    2.53443347,
                    4.382598,
                    -0.00034775
                ],
                [
                    -1.69447147,
                    0.0,
                    4.76451231
                ]
            ],
            "a": 5.062659218670589,
            "b": 5.062659218670589,
            "c": 5.056857830193123,
            "alpha": 99.66063347897109,
            "beta": 99.66063347897109,
            "gamma": 119.91885950090244,
            "volume": 105.83755227883212
        },
        "sites": [
            {
                "species": [
                    {
                        "element": "Li",
                        "occu": 1
                    }
                ],
                "abc": [
                    0.5,
                    0.5,
                    0.5
                ],
                "xyz": [
                    1.6871977350000003,
                    0.0,
                    2.381908405
                ],
                "label": "Li",
                "properties": {}
            },
            {
                "species": [
                    {
                        "element": "Li",
                        "occu": 1
                    }
                ],
                "abc": [
                    0.83642838,
                    0.16357162,
                    0.5
                ],
                "xyz": [
                    1.6871977350000003,
                    -2.94886069066248,
                    2.381908405
                ],
                "label": "Li",
                "properties": {}
            },
            {
                "species": [
                    {
                        "element": "Li",
                        "occu": 1
                    }
                ],
                "abc": [
                    0.16357162,
                    0.83642838,
                    0.5
                ],
                "xyz": [
                    1.6871977350000003,
                    2.94886069066248,
                    2.381908405
                ],
                "label": "Li",
                "properties": {}
            },
            {
                "species": [
                    {
                        "element": "Li",
                        "occu": 1
                    }
                ],
                "abc": [
                    0.0,
                    0.0,
                    0.0
                ],
                "xyz": [
                    0.0,
                    0.0,
                    0.0
                ],
                "label": "Li",
                "properties": {}
            },
            {
                "species": [
                    {
                        "element": "Pd",
                        "occu": 1
                    }
                ],
                "abc": [
                    0.66673839,
                    0.33326161,
                    0.0
                ],
                "xyz": [
                    2.53443347,
                    -1.4614946690744401,
                    -0.00034775
                ],
                "label": "Pd",
                "properties": {}
            },
            {
                "species": [
                    {
                        "element": "Pd",
                        "occu": 1
                    }
                ],
                "abc": [
                    0.33326161,
                    0.66673839,
                    0.0
                ],
                "xyz": [
                    2.53443347,
                    1.4614946690744401,
                    -0.00034775
                ],
                "label": "Pd",
                "properties": {}
            },
            {
                "species": [
                    {
                        "element": "O",
                        "occu": 1
                    }
                ],
                "abc": [
                    0.27044521,
                    0.27044521,
                    0.76525138
                ],
                "xyz": [
                    0.07415415326222874,
                    0.0,
                    3.645861525610933
                ],
                "label": "O",
                "properties": {}
            },
            {
                "species": [
                    {
                        "element": "O",
                        "occu": 1
                    }
                ],
                "abc": [
                    0.42629388,
                    0.07723652,
                    0.23205742
                ],
                "xyz": [
                    0.8829496213306808,
                    -1.52977808782128,
                    1.10546533152024
                ],
                "label": "O",
                "properties": {}
            },
            {
                "species": [
                    {
                        "element": "O",
                        "occu": 1
                    }
                ],
                "abc": [
                    0.07723652,
                    0.42629388,
                    0.23205742
                ],
                "xyz": [
                    0.8829496213306808,
                    1.52977808782128,
                    1.10546533152024
                ],
                "label": "O",
                "properties": {}
            },
            {
                "species": [
                    {
                        "element": "O",
                        "occu": 1
                    }
                ],
                "abc": [
                    0.57370612,
                    0.92276348,
                    0.76794258
                ],
                "xyz": [
                    2.4914458486693194,
                    1.5297780878212803,
                    3.65835147847976
                ],
                "label": "O",
                "properties": {}
            },
            {
                "species": [
                    {
                        "element": "O",
                        "occu": 1
                    }
                ],
                "abc": [
                    0.92276348,
                    0.57370612,
                    0.76794258
                ],
                "xyz": [
                    2.4914458486693194,
                    -1.5297780878212803,
                    3.65835147847976
                ],
                "label": "O",
                "properties": {}
            },
            {
                "species": [
                    {
                        "element": "O",
                        "occu": 1
                    }
                ],
                "abc": [
                    0.72955479,
                    0.72955479,
                    0.23474862
                ],
                "xyz": [
                    3.3002413167377718,
                    0.0,
                    1.1179552843890672
                ],
                "label": "O",
                "properties": {}
            }
        ]
    },
    "spacegroup": {
        "source": "spglib",
        "symbol": "C2/m",
        "number": 12,
        "point_group": "2/m",
        "crystal_system": "monoclinic",
        "hall": "-C 2y"
    },
    "dielectric": {
        "epsilon_ionic": [
            [
                13.64119337,
                -1e-08,
                -0.42225583
            ],
            [
                -1e-08,
                10.57275972,
                -1e-08
            ],
            [
                -0.42225583,
                -1e-08,
                8.79598853
            ]
        ],
        "epsilon_ionic_avg": 11.003313873333335,
        "epsilon_ionic_eig": [
            13.67771731343862,
            8.759464586561386,
            10.57275972
        ],
        "epsilon_electronic": [
            [
                7.04078341,
                0.0,
                -0.04010012
            ],
            [
                0.0,
                6.88616452,
                0.0
            ],
            [
                -0.04010166,
                0.0,
                4.61659134
            ]
        ],
        "epsilon_electronic_avg": 6.181179756666666,
        "epsilon_electronic_eig": [
            7.041446575930227,
            4.615928174069774,
            6.88616452
        ]
    },
    "phonon": {
        "lowest_freq": -0.1750972047364601,
        "frequency": [
            -0.1750972047364601,
            -0.026182073815032986,
            -0.024622149198388486,
            5.665701447930197,
            6.277712963498496,
            6.676708826444014,
            7.1926564964758235,
            8.209111589489611,
            8.601504915479184,
            8.760496088269589,
            8.794129299053836,
            9.068603535568776,
            9.308489317966472,
            9.511001088219126,
            9.769772404035157,
            10.481476417309073,
            10.50442198104898,
            10.84646638360248,
            11.349212608737426,
            11.491497183774987,
            11.891060585931495,
            12.271564789277889,
            12.433401632048017,
            12.903161987064689,
            14.416861623966893,
            15.363752355862564,
            15.402872399597722,
            15.4695760891647,
            15.687025456472657,
            16.283850057544747,
            16.289939917239444,
            16.44032497823853,
            16.511278634295543,
            16.639870374966915,
            17.38817288136583,
            17.53641727891808
        ]
    },
    "born_effective_charge": {
        "avg_abs_trace": 1.6984880555555557,
        "tensors": [
            [
                [
                    0.71811,
                    0.0,
                    0.1757
                ],
                [
                    -0.0,
                    1.67255,
                    0.0
                ],
                [
                    0.11481,
                    0.0,
                    1.7361
                ]
            ],
            [
                [
                    1.44788,
                    3e-05,
                    -0.06729
                ],
                [
                    -0.0,
                    0.94814,
                    0.0
                ],
                [
                    -0.04975,
                    -5e-05,
                    1.7342
                ]
            ],
            [
                [
                    1.44788,
                    -3e-05,
                    -0.06729
                ],
                [
                    -0.0,
                    0.94811,
                    0.0
                ],
                [
                    -0.04975,
                    5e-05,
                    1.7342
                ]
            ],
            [
                [
                    1.42515,
                    0.0,
                    0.02049
                ],
                [
                    -0.0,
                    1.43298,
                    0.0
                ],
                [
                    -0.01383,
                    0.0,
                    0.39731
                ]
            ],
            [
                [
                    3.20853,
                    0.0001,
                    -0.01059
                ],
                [
                    -0.0,
                    3.13176,
                    0.0
                ],
                [
                    0.00405,
                    -3e-05,
                    1.12489
                ]
            ],
            [
                [
                    3.20853,
                    -0.0001,
                    -0.01059
                ],
                [
                    -0.0,
                    3.13156,
                    0.0
                ],
                [
                    0.00405,
                    3e-05,
                    1.12489
                ]
            ],
            [
                [
                    -1.29962,
                    0.0,
                    -0.86199
                ],
                [
                    3e-05,
                    -2.56075,
                    1e-05
                ],
                [
                    -0.45944,
                    0.0,
                    -1.38301
                ]
            ],
            [
                [
                    -2.21401,
                    -0.59402,
                    0.4206
                ],
                [
                    -0.47124,
                    -1.53591,
                    -0.69951
                ],
                [
                    0.22717,
                    -0.37906,
                    -1.27157
                ]
            ],
            [
                [
                    -2.21401,
                    0.59402,
                    0.4206
                ],
                [
                    0.47138,
                    -1.53589,
                    0.69986
                ],
                [
                    0.22717,
                    0.37906,
                    -1.27157
                ]
            ],
            [
                [
                    -2.2143,
                    -0.59381,
                    0.42108
                ],
                [
                    -0.47138,
                    -1.53589,
                    -0.69986
                ],
                [
                    0.22706,
                    -0.37899,
                    -1.27127
                ]
            ],
            [
                [
                    -2.2143,
                    0.59381,
                    0.42108
                ],
                [
                    0.47124,
                    -1.53591,
                    0.69951
                ],
                [
                    0.22706,
                    0.37899,
                    -1.27127
                ]
            ],
            [
                [
                    -1.29986,
                    0.0,
                    -0.86181
                ],
                [
                    -3e-05,
                    -2.56075,
                    -1e-05
                ],
                [
                    -0.45861,
                    0.0,
                    -1.38291
                ]
            ]
        ]
    },
    "band_gap": 1.8908,
    "is_direct": false,
    "formula": "Li2PdO3"
}