{
    "mp_id": "mp-7027",
    "nelements": 3,
    "nsites": 10,
    "elements": [
        "B",
        "In",
        "O"
    ],
    "structure": {
        "@module": "pymatgen.core.structure",
        "@class": "Structure",
        "charge": null,
        "lattice": {
            "matrix": [
                [
                    2.44091738,
                    1.40926397,
                    5.18347002
                ],
                [
                    -2.44091738,
                    1.40926397,
                    5.18347002
                ],
                [
                    0.0,
                    -2.81852894,
                    5.18347003
                ]
            ],
            "a": 5.9002088133696615,
            "b": 5.9002088133696615,
            "c": 5.900209058798317,
            "alpha": 48.87497190724573,
            "beta": 48.87497190724573,
            "gamma": 48.87497307557759,
            "volume": 106.98364063244478
        },
        "sites": [
            {
                "species": [
                    {
                        "element": "In",
                        "occu": 1
                    }
                ],
                "abc": [
                    0.5,
                    0.5,
                    0.5
                ],
                "xyz": [
                    0.0,
                    -5.00000000069889e-07,
                    7.775205034999999
                ],
                "label": "In",
                "properties": {}
            },
            {
                "species": [
                    {
                        "element": "In",
                        "occu": 1
                    }
                ],
                "abc": [
                    0.0,
                    0.0,
                    0.0
                ],
                "xyz": [
                    0.0,
                    0.0,
                    0.0
                ],
                "label": "In",
                "properties": {}
            },
            {
                "species": [
                    {
                        "element": "B",
                        "occu": 1
                    }
                ],
                "abc": [
                    0.75,
                    0.75,
                    0.75
                ],
                "xyz": [
                    0.0,
                    -7.499999998827889e-07,
                    11.662807552499999
                ],
                "label": "B",
                "properties": {}
            },
            {
                "species": [
                    {
                        "element": "B",
                        "occu": 1
                    }
                ],
                "abc": [
                    0.25,
                    0.25,
                    0.25
                ],
                "xyz": [
                    0.0,
                    -2.500000000349445e-07,
                    3.8876025174999995
                ],
                "label": "B",
                "properties": {}
            },
            {
                "species": [
                    {
                        "element": "O",
                        "occu": 1
                    }
                ],
                "abc": [
                    0.96692267,
                    0.53307733,
                    0.25
                ],
                "xyz": [
                    1.0589806306380094,
                    1.4092637200000002,
                    9.0710725375
                ],
                "label": "O",
                "properties": {}
            },
            {
                "species": [
                    {
                        "element": "O",
                        "occu": 1
                    }
                ],
                "abc": [
                    0.25,
                    0.96692267,
                    0.53307733
                ],
                "xyz": [
                    -1.7499490053190048,
                    0.2124713912442695,
                    9.071072540330773
                ],
                "label": "O",
                "properties": {}
            },
            {
                "species": [
                    {
                        "element": "O",
                        "occu": 1
                    }
                ],
                "abc": [
                    0.53307733,
                    0.25,
                    0.96692267
                ],
                "xyz": [
                    0.6909683746809954,
                    -1.6217368612442695,
                    9.071072544669224
                ],
                "label": "O",
                "properties": {}
            },
            {
                "species": [
                    {
                        "element": "O",
                        "occu": 1
                    }
                ],
                "abc": [
                    0.03307733,
                    0.46692267,
                    0.75
                ],
                "xyz": [
                    -1.0589806306380094,
                    -1.4092647200000001,
                    6.4793375325
                ],
                "label": "O",
                "properties": {}
            },
            {
                "species": [
                    {
                        "element": "O",
                        "occu": 1
                    }
                ],
                "abc": [
                    0.75,
                    0.03307733,
                    0.46692267
                ],
                "xyz": [
                    1.7499490053190048,
                    -0.21247239124426964,
                    6.479337529669227
                ],
                "label": "O",
                "properties": {}
            },
            {
                "species": [
                    {
                        "element": "O",
                        "occu": 1
                    }
                ],
                "abc": [
                    0.46692267,
                    0.75,
                    0.03307733
                ],
                "xyz": [
                    -0.6909683746809954,
                    1.6217358612442698,
                    6.479337525330774
                ],
                "label": "O",
                "properties": {}
            }
        ]
    },
    "spacegroup": {
        "source": "spglib",
        "symbol": "R-3c",
        "number": 167,
        "point_group": "-3m",
        "crystal_system": "trigonal",
        "hall": "-R 3 2\"c"
    },
    "dielectric": {
        "epsilon_ionic": [
            [
                5.99273867,
                -0.0,
                -0.0
            ],
            [
                -0.0,
                5.99273492,
                -1.48e-06
            ],
            [
                -0.0,
                -1.48e-06,
                6.71259792
            ]
        ],
        "epsilon_ionic_avg": 6.232690503333333,
        "epsilon_ionic_eig": [
            6.712597920003043,
            5.992734919996957,
            5.99273867
        ],
        "epsilon_electronic": [
            [
                3.72939205,
                0.0,
                0.0
            ],
            [
                -0.0,
                3.72939336,
                -2.1e-07
            ],
            [
                -0.0,
                -2.1e-07,
                3.20528178
            ]
        ],
        "epsilon_electronic_avg": 3.554689063333333,
        "epsilon_electronic_eig": [
            3.2052817799999156,
            3.729393360000084,
            3.72939205
        ]
    },
    "phonon": {
        "lowest_freq": -0.01293568311019935,
        "frequency": [
            -0.01293568311019935,
            -0.008413620325491828,
            -0.00841361884403589,
            4.38898877919323,
            4.388988988011369,
            4.733674823227351,
            6.359945215024,
            6.359945464806155,
            6.695484268260557,
            6.695485126062994,
            7.108038017763949,
            7.931158132774148,
            10.983137406449295,
            10.98313814077536,
            11.078353428525462,
            11.078354774249554,
            12.84250490763656,
            14.63864103533333,
            18.78268642809566,
            18.782686493155605,
            19.530270983530947,
            19.530271171239658,
            20.674148738367585,
            21.317418469727272,
            27.517971986175933,
            27.694336028007015,
            36.587413624316014,
            36.58741940242591,
            36.67690096998814,
            36.676906567410214
        ]
    },
    "born_effective_charge": {
        "avg_abs_trace": 2.2686470000000005,
        "tensors": [
            [
                [
                    3.60236,
                    0.06578,
                    -0.0
                ],
                [
                    -0.06578,
                    3.60236,
                    0.0
                ],
                [
                    -0.0,
                    -0.0,
                    3.51484
                ]
            ],
            [
                [
                    3.60236,
                    -0.06578,
                    0.0
                ],
                [
                    0.06578,
                    3.60236,
                    0.0
                ],
                [
                    -0.0,
                    -0.0,
                    3.51484
                ]
            ],
            [
                [
                    2.83869,
                    -0.0,
                    -0.0
                ],
                [
                    1e-05,
                    2.83881,
                    0.0
                ],
                [
                    -0.0,
                    -0.0,
                    0.61767
                ]
            ],
            [
                [
                    2.83894,
                    -0.0,
                    -0.0
                ],
                [
                    -1e-05,
                    2.83881,
                    0.0
                ],
                [
                    -0.0,
                    -0.0,
                    0.61767
                ]
            ],
            [
                [
                    -2.70159,
                    -0.0,
                    -0.0
                ],
                [
                    3e-05,
                    -1.59254,
                    -0.37546
                ],
                [
                    -5e-05,
                    -0.29561,
                    -1.3775
                ]
            ],
            [
                [
                    -1.86978,
                    0.48032,
                    0.32511
                ],
                [
                    0.48016,
                    -2.42433,
                    0.18773
                ],
                [
                    0.25603,
                    0.14776,
                    -1.3775
                ]
            ],
            [
                [
                    -1.86978,
                    -0.48032,
                    -0.32511
                ],
                [
                    -0.4803,
                    -2.4243,
                    0.18773
                ],
                [
                    -0.25598,
                    0.14785,
                    -1.3775
                ]
            ],
            [
                [
                    -2.70157,
                    -0.0,
                    0.0
                ],
                [
                    -3e-05,
                    -1.59254,
                    -0.37546
                ],
                [
                    5e-05,
                    -0.29561,
                    -1.3775
                ]
            ],
            [
                [
                    -1.86982,
                    0.48015,
                    0.3252
                ],
                [
                    0.4803,
                    -2.4243,
                    0.18773
                ],
                [
                    0.25598,
                    0.14785,
                    -1.3775
                ]
            ],
            [
                [
                    -1.86982,
                    -0.48015,
                    -0.3252
                ],
                [
                    -0.48016,
                    -2.42433,
                    0.18773
                ],
                [
                    -0.25603,
                    0.14776,
                    -1.3775
                ]
            ]
        ]
    },
    "band_gap": 2.73,
    "is_direct": false,
    "formula": "InBO3"
}