{
    "mp_id": "mp-770239",
    "nelements": 3,
    "nsites": 22,
    "elements": [
        "Ba",
        "O",
        "Ta"
    ],
    "structure": {
        "@module": "pymatgen.core.structure",
        "@class": "Structure",
        "charge": null,
        "lattice": {
            "matrix": [
                [
                    2.03047824,
                    -13.83366271,
                    0.0
                ],
                [
                    2.03047824,
                    13.83366271,
                    0.0
                ],
                [
                    0.0,
                    0.0,
                    5.85997157
                ]
            ],
            "a": 13.981883487468991,
            "b": 13.981883487468991,
            "c": 5.85997157,
            "alpha": 90.0,
            "beta": 90.0,
            "gamma": 163.29972057263518,
            "volume": 329.20090989668967
        },
        "sites": [
            {
                "species": [
                    {
                        "element": "Ba",
                        "occu": 1
                    }
                ],
                "abc": [
                    0.70851247,
                    0.29148753,
                    0.75
                ],
                "xyz": [
                    2.03047824,
                    -5.7689823616179865,
                    4.3949786775
                ],
                "label": "Ba",
                "properties": {}
            },
            {
                "species": [
                    {
                        "element": "Ba",
                        "occu": 1
                    }
                ],
                "abc": [
                    0.55299557,
                    0.44700443,
                    0.25
                ],
                "xyz": [
                    2.03047824,
                    -1.46624568100839,
                    1.4649928925
                ],
                "label": "Ba",
                "properties": {}
            },
            {
                "species": [
                    {
                        "element": "Ba",
                        "occu": 1
                    }
                ],
                "abc": [
                    0.29148753,
                    0.70851247,
                    0.25
                ],
                "xyz": [
                    2.03047824,
                    5.7689823616179865,
                    1.4649928925
                ],
                "label": "Ba",
                "properties": {}
            },
            {
                "species": [
                    {
                        "element": "Ba",
                        "occu": 1
                    }
                ],
                "abc": [
                    0.44700443,
                    0.55299557,
                    0.75
                ],
                "xyz": [
                    2.03047824,
                    1.46624568100839,
                    4.3949786775
                ],
                "label": "Ba",
                "properties": {}
            },
            {
                "species": [
                    {
                        "element": "Ta",
                        "occu": 1
                    }
                ],
                "abc": [
                    0.84102679,
                    0.15897321,
                    0.75
                ],
                "xyz": [
                    2.03047824,
                    -9.435299175868002,
                    4.3949786775
                ],
                "label": "Ta",
                "properties": {}
            },
            {
                "species": [
                    {
                        "element": "Ta",
                        "occu": 1
                    }
                ],
                "abc": [
                    0.94489508,
                    0.05510492,
                    0.25
                ],
                "xyz": [
                    2.03047824,
                    -12.309056956116935,
                    1.4649928925
                ],
                "label": "Ta",
                "properties": {}
            },
            {
                "species": [
                    {
                        "element": "Ta",
                        "occu": 1
                    }
                ],
                "abc": [
                    0.15897321,
                    0.84102679,
                    0.25
                ],
                "xyz": [
                    2.03047824,
                    9.435299175868002,
                    1.4649928925
                ],
                "label": "Ta",
                "properties": {}
            },
            {
                "species": [
                    {
                        "element": "Ta",
                        "occu": 1
                    }
                ],
                "abc": [
                    0.05510492,
                    0.94489508,
                    0.75
                ],
                "xyz": [
                    2.03047824,
                    12.309056956116935,
                    4.3949786775
                ],
                "label": "Ta",
                "properties": {}
            },
            {
                "species": [
                    {
                        "element": "O",
                        "occu": 1
                    }
                ],
                "abc": [
                    0.0,
                    0.0,
                    0.5
                ],
                "xyz": [
                    0.0,
                    0.0,
                    2.929985785
                ],
                "label": "O",
                "properties": {}
            },
            {
                "species": [
                    {
                        "element": "O",
                        "occu": 1
                    }
                ],
                "abc": [
                    0.89997869,
                    0.10002131,
                    0.50166758
                ],
                "xyz": [
                    2.03047824,
                    -11.0663405772953,
                    2.9397577563907005
                ],
                "label": "O",
                "properties": {}
            },
            {
                "species": [
                    {
                        "element": "O",
                        "occu": 1
                    }
                ],
                "abc": [
                    0.0,
                    0.0,
                    0.0
                ],
                "xyz": [
                    0.0,
                    0.0,
                    0.0
                ],
                "label": "O",
                "properties": {}
            },
            {
                "species": [
                    {
                        "element": "O",
                        "occu": 1
                    }
                ],
                "abc": [
                    0.89997869,
                    0.10002131,
                    0.99833242
                ],
                "xyz": [
                    2.03047824,
                    -11.0663405772953,
                    5.850199598609299
                ],
                "label": "O",
                "properties": {}
            },
            {
                "species": [
                    {
                        "element": "O",
                        "occu": 1
                    }
                ],
                "abc": [
                    0.79444699,
                    0.20555301,
                    0.5211056
                ],
                "xyz": [
                    2.03047824,
                    -8.146560691269485,
                    3.0536640009677916
                ],
                "label": "O",
                "properties": {}
            },
            {
                "species": [
                    {
                        "element": "O",
                        "occu": 1
                    }
                ],
                "abc": [
                    0.79444699,
                    0.20555301,
                    0.9788944
                ],
                "xyz": [
                    2.03047824,
                    -8.146560691269485,
                    5.736293354032208
                ],
                "label": "O",
                "properties": {}
            },
            {
                "species": [
                    {
                        "element": "O",
                        "occu": 1
                    }
                ],
                "abc": [
                    0.54902825,
                    0.45097175,
                    0.75
                ],
                "xyz": [
                    2.03047824,
                    -1.3564805475231143,
                    4.3949786775
                ],
                "label": "O",
                "properties": {}
            },
            {
                "species": [
                    {
                        "element": "O",
                        "occu": 1
                    }
                ],
                "abc": [
                    0.65041314,
                    0.34958686,
                    0.25
                ],
                "xyz": [
                    2.03047824,
                    -4.161529291824019,
                    1.4649928925
                ],
                "label": "O",
                "properties": {}
            },
            {
                "species": [
                    {
                        "element": "O",
                        "occu": 1
                    }
                ],
                "abc": [
                    0.45097175,
                    0.54902825,
                    0.25
                ],
                "xyz": [
                    2.03047824,
                    1.3564805475231143,
                    1.4649928925
                ],
                "label": "O",
                "properties": {}
            },
            {
                "species": [
                    {
                        "element": "O",
                        "occu": 1
                    }
                ],
                "abc": [
                    0.20555301,
                    0.79444699,
                    0.0211056
                ],
                "xyz": [
                    2.03047824,
                    8.146560691269485,
                    0.123678215967792
                ],
                "label": "O",
                "properties": {}
            },
            {
                "species": [
                    {
                        "element": "O",
                        "occu": 1
                    }
                ],
                "abc": [
                    0.20555301,
                    0.79444699,
                    0.4788944
                ],
                "xyz": [
                    2.03047824,
                    8.146560691269485,
                    2.806307569032208
                ],
                "label": "O",
                "properties": {}
            },
            {
                "species": [
                    {
                        "element": "O",
                        "occu": 1
                    }
                ],
                "abc": [
                    0.10002131,
                    0.89997869,
                    0.49833242
                ],
                "xyz": [
                    2.03047824,
                    11.0663405772953,
                    2.9202138136092994
                ],
                "label": "O",
                "properties": {}
            },
            {
                "species": [
                    {
                        "element": "O",
                        "occu": 1
                    }
                ],
                "abc": [
                    0.34958686,
                    0.65041314,
                    0.75
                ],
                "xyz": [
                    2.03047824,
                    4.161529291824019,
                    4.3949786775
                ],
                "label": "O",
                "properties": {}
            },
            {
                "species": [
                    {
                        "element": "O",
                        "occu": 1
                    }
                ],
                "abc": [
                    0.10002131,
                    0.89997869,
                    0.00166758
                ],
                "xyz": [
                    2.03047824,
                    11.0663405772953,
                    0.009771971390700601
                ],
                "label": "O",
                "properties": {}
            }
        ]
    },
    "spacegroup": {
        "source": "spglib",
        "symbol": "Cmcm",
        "number": 63,
        "point_group": "mmm",
        "crystal_system": "orthorhombic",
        "hall": "-C 2c 2"
    },
    "dielectric": {
        "epsilon_ionic": [
            [
                23.70006819,
                -4e-08,
                1e-08
            ],
            [
                -4e-08,
                14.10598204,
                1e-08
            ],
            [
                1e-08,
                1e-08,
                33.40085217
            ]
        ],
        "epsilon_ionic_avg": 23.735634133333335,
        "epsilon_ionic_eig": [
            23.700068190000003,
            14.105982040000002,
            33.40085217
        ],
        "epsilon_electronic": [
            [
                4.6372136,
                0.0,
                0.0
            ],
            [
                0.0,
                4.29443703,
                -0.0
            ],
            [
                0.0,
                0.0,
                4.73805942
            ]
        ],
        "epsilon_electronic_avg": 4.556570016666666,
        "epsilon_electronic_eig": [
            4.6372136,
            4.29443703,
            4.73805942
        ]
    },
    "phonon": {
        "lowest_freq": -0.1603420586615137,
        "frequency": [
            -0.1603420586615137,
            -0.05519521110444715,
            -0.005101242622673254,
            1.2868600871216247,
            1.7640213354484207,
            1.7858155721573963,
            1.9691551560599,
            2.200604673611808,
            2.516883842693248,
            2.605106323273669,
            2.754028403681694,
            3.2629403955476604,
            3.2919179328586874,
            3.4629318932224478,
            3.4672129499139506,
            3.678885194948296,
            3.789308340858716,
            3.9096675417677442,
            3.9324526585373136,
            4.023733492656771,
            4.525805676981724,
            5.1403400043867515,
            5.278851971475693,
            5.403052800572136,
            5.992489266083643,
            6.431915893290978,
            6.49772311803994,
            6.56198949066777,
            6.8636092735793195,
            7.6054702499494855,
            7.757081863725183,
            8.105613482833922,
            8.49821712549544,
            8.59104279930495,
            8.72931634774129,
            8.898468439791062,
            8.946262991494491,
            9.391021038150656,
            9.684211394552522,
            9.943389739795974,
            10.007411317854514,
            10.26657979702108,
            10.373998307290352,
            10.484556278475942,
            10.599397306118664,
            10.890538900062474,
            10.965514907971903,
            11.487550447312072,
            12.423962017860381,
            12.810819283089328,
            13.110525690190595,
            13.336341740679355,
            15.126670765542466,
            15.32982420646385,
            15.41310243625891,
            15.75982916249868,
            16.16489406451359,
            17.01623961065705,
            17.120040512122095,
            17.468820312886482,
            19.080503179420035,
            19.74862146748716,
            22.325883227607854,
            23.28149723924642,
            24.111841587372055,
            24.23708586086117
        ]
    },
    "born_effective_charge": {
        "avg_abs_trace": 3.468901212121212,
        "tensors": [
            [
                [
                    2.90803,
                    0.00014,
                    0.0
                ],
                [
                    0.0,
                    2.84839,
                    -0.0
                ],
                [
                    -0.0,
                    -0.00019,
                    3.05732
                ]
            ],
            [
                [
                    2.70926,
                    8e-05,
                    0.0
                ],
                [
                    0.0,
                    2.30806,
                    -0.0
                ],
                [
                    -0.0,
                    7e-05,
                    2.75723
                ]
            ],
            [
                [
                    2.90803,
                    -0.00014,
                    0.0
                ],
                [
                    0.0,
                    2.84886,
                    -0.0
                ],
                [
                    0.0,
                    0.00019,
                    3.05732
                ]
            ],
            [
                [
                    2.70926,
                    -8e-05,
                    0.0
                ],
                [
                    0.0,
                    2.30859,
                    -0.0
                ],
                [
                    0.0,
                    -7e-05,
                    2.75723
                ]
            ],
            [
                [
                    6.98808,
                    0.00072,
                    0.0
                ],
                [
                    0.0,
                    6.48259,
                    -0.0
                ],
                [
                    -0.0,
                    -0.00038,
                    6.26936
                ]
            ],
            [
                [
                    7.36396,
                    0.00053,
                    0.0
                ],
                [
                    0.0,
                    5.63476,
                    -0.0
                ],
                [
                    -0.0,
                    -0.00032,
                    7.90945
                ]
            ],
            [
                [
                    6.98808,
                    -0.00072,
                    0.0
                ],
                [
                    0.0,
                    6.48217,
                    -0.0
                ],
                [
                    0.0,
                    0.00038,
                    6.26936
                ]
            ],
            [
                [
                    7.36396,
                    -0.00053,
                    0.0
                ],
                [
                    0.0,
                    5.63495,
                    -0.0
                ],
                [
                    -0.0,
                    0.00032,
                    7.90945
                ]
            ],
            [
                [
                    -2.03789,
                    -0.0,
                    0.0
                ],
                [
                    0.0,
                    -2.93963,
                    1.31214
                ],
                [
                    -0.0,
                    1.58081,
                    -3.56604
                ]
            ],
            [
                [
                    -1.69011,
                    -0.00011,
                    -0.0002
                ],
                [
                    0.0,
                    -2.93337,
                    -1.69094
                ],
                [
                    -0.0,
                    -1.85042,
                    -3.74208
                ]
            ],
            [
                [
                    -2.03789,
                    -0.0,
                    0.0
                ],
                [
                    0.0,
                    -2.93963,
                    -1.31214
                ],
                [
                    -0.0,
                    -1.58081,
                    -3.56604
                ]
            ],
            [
                [
                    -1.69011,
                    -0.00011,
                    0.0002
                ],
                [
                    0.0,
                    -2.93337,
                    1.69094
                ],
                [
                    -0.0,
                    1.85125,
                    -3.74196
                ]
            ],
            [
                [
                    -1.8209,
                    -0.00017,
                    6e-05
                ],
                [
                    0.0,
                    -2.70448,
                    1.04306
                ],
                [
                    -0.0,
                    1.08527,
                    -2.90892
                ]
            ],
            [
                [
                    -1.8209,
                    -0.00017,
                    -6e-05
                ],
                [
                    0.0,
                    -2.70448,
                    -1.04306
                ],
                [
                    -0.0,
                    -1.08524,
                    -2.90892
                ]
            ],
            [
                [
                    -5.56039,
                    0.00086,
                    0.0
                ],
                [
                    0.0,
                    -1.33702,
                    -0.0
                ],
                [
                    -0.0,
                    -5e-05,
                    -1.82517
                ]
            ],
            [
                [
                    -5.34903,
                    0.00094,
                    0.0
                ],
                [
                    0.0,
                    -1.72195,
                    -0.0
                ],
                [
                    -0.0,
                    3e-05,
                    -1.30026
                ]
            ],
            [
                [
                    -5.56039,
                    -0.00086,
                    0.0
                ],
                [
                    0.0,
                    -1.33712,
                    -0.0
                ],
                [
                    -0.0,
                    5e-05,
                    -1.82517
                ]
            ],
            [
                [
                    -1.8209,
                    0.00017,
                    6e-05
                ],
                [
                    0.0,
                    -2.70446,
                    -1.04361
                ],
                [
                    -0.0,
                    -1.08527,
                    -2.90892
                ]
            ],
            [
                [
                    -1.8209,
                    0.00017,
                    -6e-05
                ],
                [
                    0.0,
                    -2.70446,
                    1.04361
                ],
                [
                    -0.0,
                    1.08524,
                    -2.90892
                ]
            ],
            [
                [
                    -1.69011,
                    0.00011,
                    0.0002
                ],
                [
                    0.0,
                    -2.93338,
                    -1.69072
                ],
                [
                    -0.0,
                    -1.85125,
                    -3.74196
                ]
            ],
            [
                [
                    -5.34903,
                    -0.00094,
                    0.0
                ],
                [
                    0.0,
                    -1.72164,
                    -0.0
                ],
                [
                    -0.0,
                    -3e-05,
                    -1.30026
                ]
            ],
            [
                [
                    -1.69011,
                    0.00011,
                    -0.0002
                ],
                [
                    0.0,
                    -2.93338,
                    1.69072
                ],
                [
                    -0.0,
                    1.85042,
                    -3.74208
                ]
            ]
        ]
    },
    "band_gap": 2.9778,
    "is_direct": true,
    "formula": "Ba2Ta2O7"
}