{
    "mp_id": "mp-754128",
    "nelements": 3,
    "nsites": 12,
    "elements": [
        "Ba",
        "Hf",
        "O"
    ],
    "structure": {
        "@module": "pymatgen.core.structure",
        "@class": "Structure",
        "charge": null,
        "lattice": {
            "matrix": [
                [
                    -2.09489919,
                    2.09489919,
                    10.90920495
                ],
                [
                    2.09489919,
                    -2.09489919,
                    10.90920495
                ],
                [
                    2.09489919,
                    2.09489919,
                    -10.90920495
                ]
            ],
            "a": 11.304333588214291,
            "b": 11.304333588214291,
            "c": 11.304333588214291,
            "alpha": 158.64062606745995,
            "beta": 158.64062606745995,
            "gamma": 30.38698422970811,
            "volume": 191.50466153966207
        },
        "sites": [
            {
                "species": [
                    {
                        "element": "Ba",
                        "occu": 1
                    }
                ],
                "abc": [
                    0.5,
                    0.5,
                    0.0
                ],
                "xyz": [
                    0.0,
                    0.0,
                    10.90920495
                ],
                "label": "Ba",
                "properties": {}
            },
            {
                "species": [
                    {
                        "element": "Ba",
                        "occu": 1
                    }
                ],
                "abc": [
                    0.68623004,
                    0.68623004,
                    0.0
                ],
                "xyz": [
                    0.0,
                    0.0,
                    14.972448298413395
                ],
                "label": "Ba",
                "properties": {}
            },
            {
                "species": [
                    {
                        "element": "Ba",
                        "occu": 1
                    }
                ],
                "abc": [
                    0.31376996,
                    0.31376996,
                    0.0
                ],
                "xyz": [
                    0.0,
                    0.0,
                    6.845961601586604
                ],
                "label": "Ba",
                "properties": {}
            },
            {
                "species": [
                    {
                        "element": "Hf",
                        "occu": 1
                    }
                ],
                "abc": [
                    0.90294849,
                    0.90294849,
                    0.0
                ],
                "xyz": [
                    0.0,
                    0.0,
                    19.70090027340605
                ],
                "label": "Hf",
                "properties": {}
            },
            {
                "species": [
                    {
                        "element": "Hf",
                        "occu": 1
                    }
                ],
                "abc": [
                    0.09705151,
                    0.09705151,
                    0.0
                ],
                "xyz": [
                    0.0,
                    0.0,
                    2.117509626593949
                ],
                "label": "Hf",
                "properties": {}
            },
            {
                "species": [
                    {
                        "element": "O",
                        "occu": 1
                    }
                ],
                "abc": [
                    0.0,
                    0.0,
                    0.0
                ],
                "xyz": [
                    0.0,
                    0.0,
                    0.0
                ],
                "label": "O",
                "properties": {}
            },
            {
                "species": [
                    {
                        "element": "O",
                        "occu": 1
                    }
                ],
                "abc": [
                    0.09598966,
                    0.59598966,
                    0.5
                ],
                "xyz": [
                    2.09489919,
                    0.0,
                    2.094341748041634
                ],
                "label": "O",
                "properties": {}
            },
            {
                "species": [
                    {
                        "element": "O",
                        "occu": 1
                    }
                ],
                "abc": [
                    0.40401034,
                    0.90401034,
                    0.5
                ],
                "xyz": [
                    2.0948991899999996,
                    2.220446049250313e-16,
                    8.814863201958365
                ],
                "label": "O",
                "properties": {}
            },
            {
                "species": [
                    {
                        "element": "O",
                        "occu": 1
                    }
                ],
                "abc": [
                    0.80670651,
                    0.80670651,
                    0.0
                ],
                "xyz": [
                    0.0,
                    0.0,
                    17.60105330417845
                ],
                "label": "O",
                "properties": {}
            },
            {
                "species": [
                    {
                        "element": "O",
                        "occu": 1
                    }
                ],
                "abc": [
                    0.19329349,
                    0.19329349,
                    0.0
                ],
                "xyz": [
                    0.0,
                    0.0,
                    4.217356595821551
                ],
                "label": "O",
                "properties": {}
            },
            {
                "species": [
                    {
                        "element": "O",
                        "occu": 1
                    }
                ],
                "abc": [
                    0.59598966,
                    0.09598966,
                    0.5
                ],
                "xyz": [
                    0.0,
                    2.09489919,
                    2.094341748041634
                ],
                "label": "O",
                "properties": {}
            },
            {
                "species": [
                    {
                        "element": "O",
                        "occu": 1
                    }
                ],
                "abc": [
                    0.90401034,
                    0.40401034,
                    0.5
                ],
                "xyz": [
                    2.220446049250313e-16,
                    2.0948991899999996,
                    8.814863201958365
                ],
                "label": "O",
                "properties": {}
            }
        ]
    },
    "spacegroup": {
        "source": "spglib",
        "symbol": "I4/mmm",
        "number": 139,
        "point_group": "4/mmm",
        "crystal_system": "tetragonal",
        "hall": "-I 4 2"
    },
    "dielectric": {
        "epsilon_ionic": [
            [
                23.20134146,
                -0.0,
                -0.0
            ],
            [
                -0.0,
                23.20122277,
                0.0
            ],
            [
                -0.0,
                0.0,
                13.68252258
            ]
        ],
        "epsilon_ionic_avg": 20.02836227,
        "epsilon_ionic_eig": [
            23.20134146,
            23.20122277,
            13.68252258
        ],
        "epsilon_electronic": [
            [
                4.29842258,
                0.0,
                0.0
            ],
            [
                0.0,
                4.29842258,
                -0.0
            ],
            [
                0.0,
                -0.0,
                4.38410475
            ]
        ],
        "epsilon_electronic_avg": 4.326983303333333,
        "epsilon_electronic_eig": [
            4.29842258,
            4.29842258,
            4.38410475
        ]
    },
    "phonon": {
        "lowest_freq": -0.03268423779847903,
        "frequency": [
            -0.03268423779847903,
            -0.03268423779847903,
            -0.022746536927897996,
            1.9077847198606017,
            1.9077847198606017,
            2.244045065355667,
            2.244045065355667,
            3.0670505888348414,
            3.0670505888348414,
            3.1222633537151925,
            3.1222633537151925,
            3.6922829204971657,
            4.052053680531973,
            4.152053257683087,
            4.722739559625312,
            5.387733176696535,
            5.387733176696535,
            6.101254979875848,
            6.101254979875848,
            7.029088335609163,
            7.029088335609163,
            7.241553151184002,
            7.272510533717909,
            7.272510533717909,
            7.370677427511216,
            7.370677427511216,
            7.745970531412036,
            8.646936303754934,
            11.972669900650374,
            14.705786511141602,
            16.534497174088397,
            17.33352932405881,
            17.33352932405881,
            17.422423908899994,
            17.422423908899994,
            20.342956515295924
        ]
    },
    "born_effective_charge": {
        "avg_abs_trace": 3.0979991666666664,
        "tensors": [
            [
                [
                    2.7414,
                    -0.0,
                    0.0
                ],
                [
                    -0.0,
                    2.74138,
                    0.0
                ],
                [
                    0.0,
                    0.0,
                    2.69111
                ]
            ],
            [
                [
                    2.50331,
                    -0.0,
                    0.0
                ],
                [
                    0.0,
                    2.5033,
                    -8e-05
                ],
                [
                    0.0,
                    0.0,
                    2.92269
                ]
            ],
            [
                [
                    2.50331,
                    0.0,
                    -0.0
                ],
                [
                    -0.0,
                    2.5033,
                    8e-05
                ],
                [
                    -0.0,
                    -0.0,
                    2.92281
                ]
            ],
            [
                [
                    5.36773,
                    -0.0,
                    -2e-05
                ],
                [
                    -0.0,
                    5.36773,
                    -0.00012
                ],
                [
                    -0.0,
                    -0.0,
                    5.13023
                ]
            ],
            [
                [
                    5.36773,
                    -0.0,
                    2e-05
                ],
                [
                    -0.0,
                    5.36773,
                    0.00012
                ],
                [
                    -0.0,
                    -0.0,
                    5.13022
                ]
            ],
            [
                [
                    -2.02639,
                    -0.0,
                    0.0
                ],
                [
                    -0.0,
                    -2.02638,
                    0.0
                ],
                [
                    0.0,
                    0.0,
                    -4.11495
                ]
            ],
            [
                [
                    -4.12876,
                    -0.0,
                    2e-05
                ],
                [
                    -0.0,
                    -2.01376,
                    2e-05
                ],
                [
                    -0.0,
                    0.0,
                    -1.90004
                ]
            ],
            [
                [
                    -2.01376,
                    -0.0,
                    0.0
                ],
                [
                    -0.0,
                    -4.12876,
                    3e-05
                ],
                [
                    0.0,
                    -0.0,
                    -1.90003
                ]
            ],
            [
                [
                    -2.08602,
                    0.0,
                    -5e-05
                ],
                [
                    0.0,
                    -2.08602,
                    0.00012
                ],
                [
                    -0.0,
                    -0.0,
                    -3.54097
                ]
            ],
            [
                [
                    -2.08602,
                    -0.0,
                    5e-05
                ],
                [
                    -0.0,
                    -2.08602,
                    -0.00012
                ],
                [
                    0.0,
                    0.0,
                    -3.541
                ]
            ],
            [
                [
                    -2.01376,
                    -0.0,
                    -0.0
                ],
                [
                    0.0,
                    -4.12876,
                    -3e-05
                ],
                [
                    0.0,
                    -0.0,
                    -1.90004
                ]
            ],
            [
                [
                    -4.12876,
                    0.0,
                    -2e-05
                ],
                [
                    -0.0,
                    -2.01376,
                    -2e-05
                ],
                [
                    -0.0,
                    0.0,
                    -1.90003
                ]
            ]
        ]
    },
    "band_gap": 3.7178999999999998,
    "is_direct": false,
    "formula": "Ba3Hf2O7"
}