{
    "mp_id": "mp-781505",
    "nelements": 3,
    "nsites": 20,
    "elements": [
        "Ca",
        "O",
        "W"
    ],
    "structure": {
        "@module": "pymatgen.core.structure",
        "@class": "Structure",
        "charge": null,
        "lattice": {
            "matrix": [
                [
                    4.65913168,
                    2.68995066,
                    3.64419303
                ],
                [
                    -4.65913174,
                    2.68995056,
                    3.64419303
                ],
                [
                    6e-08,
                    -5.37990222,
                    3.64419303
                ]
            ],
            "a": 6.497960095654223,
            "b": 6.497960097278247,
            "c": 6.497960505932728,
            "alpha": 91.61707659677322,
            "beta": 91.61707656852653,
            "gamma": 91.61708041562389,
            "volume": 274.03243586470165
        },
        "sites": [
            {
                "species": [
                    {
                        "element": "Ca",
                        "occu": 1
                    }
                ],
                "abc": [
                    0.43618008,
                    0.93363669,
                    0.74733914
                ],
                "xyz": [
                    -2.3177158622542584,
                    -0.33587206720199125,
                    7.715324810645307
                ],
                "label": "Ca",
                "properties": {}
            },
            {
                "species": [
                    {
                        "element": "Ca",
                        "occu": 1
                    }
                ],
                "abc": [
                    0.93363669,
                    0.74733914,
                    0.43618008
                ],
                "xyz": [
                    0.8679847984418397,
                    2.175135787906857,
                    7.715324810645308
                ],
                "label": "Ca",
                "properties": {}
            },
            {
                "species": [
                    {
                        "element": "Ca",
                        "occu": 1
                    }
                ],
                "abc": [
                    0.25266086,
                    0.56381992,
                    0.06636331
                ],
                "xyz": [
                    -1.4497310638124177,
                    1.8392648378607745,
                    3.2172542793546923
                ],
                "label": "Ca",
                "properties": {}
            },
            {
                "species": [
                    {
                        "element": "Ca",
                        "occu": 1
                    }
                ],
                "abc": [
                    0.74733914,
                    0.43618008,
                    0.93363669
                ],
                "xyz": [
                    1.4497310638124172,
                    -1.8392658378607742,
                    7.715324810645308
                ],
                "label": "Ca",
                "properties": {}
            },
            {
                "species": [
                    {
                        "element": "Ca",
                        "occu": 1
                    }
                ],
                "abc": [
                    0.06636331,
                    0.25266086,
                    0.56381992
                ],
                "xyz": [
                    -0.8679847984418405,
                    -2.1751367879068564,
                    3.2172542793546928
                ],
                "label": "Ca",
                "properties": {}
            },
            {
                "species": [
                    {
                        "element": "Ca",
                        "occu": 1
                    }
                ],
                "abc": [
                    0.56381992,
                    0.06636331,
                    0.25266086
                ],
                "xyz": [
                    2.317715862254258,
                    0.3358710672019918,
                    3.2172542793546923
                ],
                "label": "Ca",
                "properties": {}
            },
            {
                "species": [
                    {
                        "element": "W",
                        "occu": 1
                    }
                ],
                "abc": [
                    0.0,
                    0.0,
                    0.0
                ],
                "xyz": [
                    0.0,
                    0.0,
                    0.0
                ],
                "label": "W",
                "properties": {}
            },
            {
                "species": [
                    {
                        "element": "W",
                        "occu": 1
                    }
                ],
                "abc": [
                    0.5,
                    0.5,
                    0.5
                ],
                "xyz": [
                    -2.6176508340344375e-16,
                    -4.999999996257998e-07,
                    5.4662895449999995
                ],
                "label": "W",
                "properties": {}
            },
            {
                "species": [
                    {
                        "element": "O",
                        "occu": 1
                    }
                ],
                "abc": [
                    0.28325359,
                    0.93766986,
                    0.06866112
                ],
                "xyz": [
                    -3.0490116276049584,
                    2.9148336344543044,
                    4.699495101589547
                ],
                "label": "O",
                "properties": {}
            },
            {
                "species": [
                    {
                        "element": "O",
                        "occu": 1
                    }
                ],
                "abc": [
                    0.06233014,
                    0.93133888,
                    0.71674641
                ],
                "xyz": [
                    -4.0488261636064315,
                    -1.1831050592993644,
                    6.233083988410453
                ],
                "label": "O",
                "properties": {}
            },
            {
                "species": [
                    {
                        "element": "O",
                        "occu": 1
                    }
                ],
                "abc": [
                    0.57835053,
                    0.78308893,
                    0.45269049
                ],
                "xyz": [
                    -0.9539031853764187,
                    1.2267743235442632,
                    6.611039719304248
                ],
                "label": "O",
                "properties": {}
            },
            {
                "species": [
                    {
                        "element": "O",
                        "occu": 1
                    }
                ],
                "abc": [
                    0.93133888,
                    0.71674641,
                    0.06233014
                ],
                "xyz": [
                    0.9998145360014731,
                    4.09793798333824,
                    6.233083988410453
                ],
                "label": "O",
                "properties": {}
            },
            {
                "species": [
                    {
                        "element": "O",
                        "occu": 1
                    }
                ],
                "abc": [
                    0.45269049,
                    0.57835053,
                    0.78308893
                ],
                "xyz": [
                    -0.5854666609897634,
                    -1.4394924585634046,
                    6.611039719304248
                ],
                "label": "O",
                "properties": {}
            },
            {
                "species": [
                    {
                        "element": "O",
                        "occu": 1
                    }
                ],
                "abc": [
                    0.21691107,
                    0.54730951,
                    0.42164947
                ],
                "xyz": [
                    -1.5393698463661818,
                    -0.2127173208891917,
                    4.321539370695752
                ],
                "label": "O",
                "properties": {}
            },
            {
                "species": [
                    {
                        "element": "O",
                        "occu": 1
                    }
                ],
                "abc": [
                    0.78308893,
                    0.45269049,
                    0.57835053
                ],
                "xyz": [
                    1.5393698463661813,
                    0.212716320889192,
                    6.611039719304248
                ],
                "label": "O",
                "properties": {}
            },
            {
                "species": [
                    {
                        "element": "O",
                        "occu": 1
                    }
                ],
                "abc": [
                    0.54730951,
                    0.42164947,
                    0.21691107
                ],
                "xyz": [
                    0.5854666609897634,
                    1.4394914585634049,
                    4.321539370695752
                ],
                "label": "O",
                "properties": {}
            },
            {
                "species": [
                    {
                        "element": "O",
                        "occu": 1
                    }
                ],
                "abc": [
                    0.06866112,
                    0.28325359,
                    0.93766986
                ],
                "xyz": [
                    -0.9998145360014735,
                    -4.0979389833382385,
                    4.699495101589546
                ],
                "label": "O",
                "properties": {}
            },
            {
                "species": [
                    {
                        "element": "O",
                        "occu": 1
                    }
                ],
                "abc": [
                    0.42164947,
                    0.21691107,
                    0.54730951
                ],
                "xyz": [
                    0.9539031853764185,
                    -1.2267753235442629,
                    4.321539370695752
                ],
                "label": "O",
                "properties": {}
            },
            {
                "species": [
                    {
                        "element": "O",
                        "occu": 1
                    }
                ],
                "abc": [
                    0.93766986,
                    0.06866112,
                    0.28325359
                ],
                "xyz": [
                    4.048826163606431,
                    1.1831040592993647,
                    4.699495101589546
                ],
                "label": "O",
                "properties": {}
            },
            {
                "species": [
                    {
                        "element": "O",
                        "occu": 1
                    }
                ],
                "abc": [
                    0.71674641,
                    0.06233014,
                    0.93133888
                ],
                "xyz": [
                    3.049011627604958,
                    -2.9148346344543046,
                    6.233083988410453
                ],
                "label": "O",
                "properties": {}
            }
        ]
    },
    "spacegroup": {
        "source": "spglib",
        "symbol": "R-3",
        "number": 148,
        "point_group": "-3",
        "crystal_system": "trigonal",
        "hall": "-R 3"
    },
    "dielectric": {
        "epsilon_ionic": [
            [
                9.9043498,
                -4.7e-07,
                1.1e-07
            ],
            [
                -4.7e-07,
                9.90437003,
                -2.6e-07
            ],
            [
                1.1e-07,
                -2.6e-07,
                8.17297835
            ]
        ],
        "epsilon_ionic_avg": 9.327232726666667,
        "epsilon_ionic_eig": [
            9.904349789086465,
            9.904370040913587,
            8.172978349999953
        ],
        "epsilon_electronic": [
            [
                4.04093966,
                4.8e-07,
                0.0
            ],
            [
                -4.8e-07,
                4.04093932,
                0.0
            ],
            [
                -0.0,
                0.0,
                3.86899248
            ]
        ],
        "epsilon_electronic_avg": 3.9836238199999996,
        "epsilon_electronic_eig": [
            4.0409394899999995,
            4.0409394899999995,
            3.86899248
        ]
    },
    "phonon": {
        "lowest_freq": -0.0662476343296614,
        "frequency": [
            -0.0662476343296614,
            -0.04501407449743281,
            -0.04501407259713722,
            3.1471535031111957,
            3.1622177483429033,
            3.1622178449523664,
            4.531820836725301,
            4.53182087986913,
            5.551501016754936,
            5.551501082791166,
            5.7636371995286355,
            5.791951168106462,
            6.110012862782544,
            6.382450771695486,
            6.780177766271718,
            6.780177838364263,
            6.780468202887116,
            6.780468274976572,
            7.147764527019375,
            7.147764561211901,
            7.150472301613074,
            7.596999946138109,
            7.597000187417689,
            7.709464029314822,
            7.812019465904895,
            7.8120195597603175,
            8.85246426042103,
            8.896124095105968,
            8.896124246205558,
            9.027800956992554,
            9.027800970528528,
            9.1627573886023,
            9.320686814504912,
            9.725125060429935,
            9.725125060429935,
            9.77559754496219,
            10.699655695771042,
            10.801973446600769,
            10.801973774670623,
            12.516835058608644,
            12.583945316356257,
            12.583945665944736,
            12.789502092924312,
            12.789502140697895,
            12.800907316774927,
            12.933039896695906,
            13.814227206313829,
            13.814227339003189,
            15.793251006623743,
            16.762237748630483,
            16.762237821532484,
            17.368153297863998,
            17.368153508940093,
            17.558343382851387,
            17.639535499521045,
            17.639535638073518,
            19.041975606487018,
            19.04197586318321,
            22.797364473487466,
            23.147727702849103
        ]
    },
    "born_effective_charge": {
        "avg_abs_trace": 2.8499903333333334,
        "tensors": [
            [
                [
                    2.67509,
                    0.18752,
                    0.03293
                ],
                [
                    0.1319,
                    2.35071,
                    0.15168
                ],
                [
                    -0.27467,
                    0.27747,
                    2.38342
                ]
            ],
            [
                [
                    2.29345,
                    0.08841,
                    0.11489
                ],
                [
                    0.03278,
                    2.73231,
                    -0.10438
                ],
                [
                    0.37763,
                    0.09913,
                    2.38342
                ]
            ],
            [
                [
                    2.57012,
                    -0.1925,
                    -0.14783
                ],
                [
                    -0.24809,
                    2.45564,
                    -0.04725
                ],
                [
                    -0.10294,
                    -0.37663,
                    2.38346
                ]
            ],
            [
                [
                    2.57012,
                    -0.19252,
                    -0.14785
                ],
                [
                    -0.24814,
                    2.45566,
                    -0.04729
                ],
                [
                    -0.10296,
                    -0.37661,
                    2.38342
                ]
            ],
            [
                [
                    2.2935,
                    0.08837,
                    0.11483
                ],
                [
                    0.03279,
                    2.73229,
                    -0.10442
                ],
                [
                    0.37764,
                    0.09917,
                    2.38346
                ]
            ],
            [
                [
                    2.67503,
                    0.18753,
                    0.03303
                ],
                [
                    0.13194,
                    2.35071,
                    0.15166
                ],
                [
                    -0.2747,
                    0.27746,
                    2.38346
                ]
            ],
            [
                [
                    7.48916,
                    -0.20177,
                    0.0
                ],
                [
                    0.20177,
                    7.48916,
                    -0.0
                ],
                [
                    -0.0,
                    -0.0,
                    5.66285
                ]
            ],
            [
                [
                    6.47803,
                    0.0016,
                    -0.0
                ],
                [
                    -0.0016,
                    6.47804,
                    -0.0
                ],
                [
                    -0.0,
                    -0.0,
                    7.4472
                ]
            ],
            [
                [
                    -3.1952,
                    -0.3282,
                    -1.06569
                ],
                [
                    -0.34476,
                    -1.6332,
                    -0.16912
                ],
                [
                    -1.01717,
                    -0.24465,
                    -2.30528
                ]
            ],
            [
                [
                    -1.73229,
                    -0.49986,
                    0.38642
                ],
                [
                    -0.51637,
                    -3.09603,
                    1.00739
                ],
                [
                    0.29666,
                    1.00322,
                    -2.30519
                ]
            ],
            [
                [
                    -2.24963,
                    0.68106,
                    0.67936
                ],
                [
                    0.68646,
                    -2.60355,
                    -0.98648
                ],
                [
                    0.70303,
                    -0.92681,
                    -2.26322
                ]
            ],
            [
                [
                    -2.31504,
                    0.85284,
                    0.67924
                ],
                [
                    0.83632,
                    -2.51329,
                    -0.83837
                ],
                [
                    0.72048,
                    -0.75853,
                    -2.30519
                ]
            ],
            [
                [
                    -1.92292,
                    -0.49782,
                    0.51463
                ],
                [
                    -0.49245,
                    -2.93025,
                    1.08158
                ],
                [
                    0.45113,
                    1.07225,
                    -2.26322
                ]
            ],
            [
                [
                    -3.10718,
                    -0.19135,
                    -1.19398
                ],
                [
                    -0.18593,
                    -1.74593,
                    -0.09509
                ],
                [
                    -1.15419,
                    -0.14548,
                    -2.2632
                ]
            ],
            [
                [
                    -3.10723,
                    -0.19132,
                    -1.19399
                ],
                [
                    -0.18592,
                    -1.74594,
                    -0.0951
                ],
                [
                    -1.15416,
                    -0.14543,
                    -2.26322
                ]
            ],
            [
                [
                    -1.92288,
                    -0.49786,
                    0.51464
                ],
                [
                    -0.4924,
                    -2.93025,
                    1.08156
                ],
                [
                    0.45111,
                    1.0723,
                    -2.2632
                ]
            ],
            [
                [
                    -2.31509,
                    0.85288,
                    0.67928
                ],
                [
                    0.83632,
                    -2.51331,
                    -0.83835
                ],
                [
                    0.72046,
                    -0.75857,
                    -2.30528
                ]
            ],
            [
                [
                    -2.24959,
                    0.68104,
                    0.67933
                ],
                [
                    0.68648,
                    -2.60352,
                    -0.98647
                ],
                [
                    0.70308,
                    -0.92682,
                    -2.2632
                ]
            ],
            [
                [
                    -1.73231,
                    -0.49988,
                    0.3864
                ],
                [
                    -0.51643,
                    -3.09609,
                    1.00748
                ],
                [
                    0.29671,
                    1.00322,
                    -2.30528
                ]
            ],
            [
                [
                    -3.19515,
                    -0.32818,
                    -1.06565
                ],
                [
                    -0.34469,
                    -1.63317,
                    -0.16903
                ],
                [
                    -1.01714,
                    -0.24469,
                    -2.30519
                ]
            ]
        ]
    },
    "band_gap": 3.5506,
    "is_direct": true,
    "formula": "Ca3WO6"
}