{
    "mp_id": "mp-755013",
    "nelements": 3,
    "nsites": 11,
    "elements": [
        "Li",
        "O",
        "Ta"
    ],
    "structure": {
        "@module": "pymatgen.core.structure",
        "@class": "Structure",
        "charge": null,
        "lattice": {
            "matrix": [
                [
                    4.86914553,
                    -2.00403682,
                    0.00057758
                ],
                [
                    4.86914553,
                    2.00403682,
                    0.00057758
                ],
                [
                    -1.85710492,
                    0.0,
                    5.5069026
                ]
            ],
            "a": 5.265428957058803,
            "b": 5.265428957058803,
            "c": 5.811610355983526,
            "alpha": 107.18134801681316,
            "beta": 107.18134801681316,
            "gamma": 44.74204860632692,
            "volume": 107.47642574015885
        },
        "sites": [
            {
                "species": [
                    {
                        "element": "Li",
                        "occu": 1
                    }
                ],
                "abc": [
                    0.2861071,
                    0.2861071,
                    0.65362165
                ],
                "xyz": [
                    1.572350232099008,
                    0.0,
                    3.5997612632789266
                ],
                "label": "Li",
                "properties": {}
            },
            {
                "species": [
                    {
                        "element": "Li",
                        "occu": 1
                    }
                ],
                "abc": [
                    0.30816126,
                    0.30816126,
                    0.13976337
                ],
                "xyz": [
                    2.7414088012335553,
                    0.0,
                    0.7700192411988636
                ],
                "label": "Li",
                "properties": {}
            },
            {
                "species": [
                    {
                        "element": "Li",
                        "occu": 1
                    }
                ],
                "abc": [
                    0.0,
                    0.0,
                    0.5
                ],
                "xyz": [
                    -0.92855246,
                    0.0,
                    2.7534513
                ],
                "label": "Li",
                "properties": {}
            },
            {
                "species": [
                    {
                        "element": "Li",
                        "occu": 1
                    }
                ],
                "abc": [
                    0.69183874,
                    0.69183874,
                    0.86023663
                ],
                "xyz": [
                    5.139777338766445,
                    0.0,
                    4.738038518801137
                ],
                "label": "Li",
                "properties": {}
            },
            {
                "species": [
                    {
                        "element": "Li",
                        "occu": 1
                    }
                ],
                "abc": [
                    0.7138929,
                    0.7138929,
                    0.34637835
                ],
                "xyz": [
                    6.308835907900993,
                    0.0,
                    1.908296496721074
                ],
                "label": "Li",
                "properties": {}
            },
            {
                "species": [
                    {
                        "element": "Ta",
                        "occu": 1
                    }
                ],
                "abc": [
                    0.0,
                    0.0,
                    0.0
                ],
                "xyz": [
                    0.0,
                    0.0,
                    0.0
                ],
                "label": "Ta",
                "properties": {}
            },
            {
                "species": [
                    {
                        "element": "O",
                        "occu": 1
                    }
                ],
                "abc": [
                    0.1461944,
                    0.1461944,
                    0.82606121
                ],
                "xyz": [
                    -0.11039871877008922,
                    0.0,
                    4.54920750303125
                ],
                "label": "O",
                "properties": {}
            },
            {
                "species": [
                    {
                        "element": "O",
                        "occu": 1
                    }
                ],
                "abc": [
                    0.15705484,
                    0.15705484,
                    0.31853133
                ],
                "xyz": [
                    0.9378996441845868,
                    0.0,
                    1.7543024328274324
                ],
                "label": "O",
                "properties": {}
            },
            {
                "species": [
                    {
                        "element": "O",
                        "occu": 1
                    }
                ],
                "abc": [
                    0.5,
                    0.5,
                    0.0
                ],
                "xyz": [
                    4.86914553,
                    0.0,
                    0.00057758
                ],
                "label": "O",
                "properties": {}
            },
            {
                "species": [
                    {
                        "element": "O",
                        "occu": 1
                    }
                ],
                "abc": [
                    0.84294516,
                    0.84294516,
                    0.68146867
                ],
                "xyz": [
                    6.943286495815413,
                    0.0,
                    3.7537553271725677
                ],
                "label": "O",
                "properties": {}
            },
            {
                "species": [
                    {
                        "element": "O",
                        "occu": 1
                    }
                ],
                "abc": [
                    0.8538056,
                    0.8538056,
                    0.17393879
                ],
                "xyz": [
                    7.991584858770088,
                    0.0,
                    0.95885025696875
                ],
                "label": "O",
                "properties": {}
            }
        ]
    },
    "spacegroup": {
        "source": "spglib",
        "symbol": "C2/m",
        "number": 12,
        "point_group": "2/m",
        "crystal_system": "monoclinic",
        "hall": "-C 2y"
    },
    "dielectric": {
        "epsilon_ionic": [
            [
                10.41598655,
                -0.0,
                -0.01764148
            ],
            [
                -0.0,
                13.46097877,
                1e-08
            ],
            [
                -0.01764148,
                1e-08,
                7.41350415
            ]
        ],
        "epsilon_ionic_avg": 10.430156489999998,
        "epsilon_ionic_eig": [
            10.41609020125637,
            7.4134004987436235,
            13.46097877
        ],
        "epsilon_electronic": [
            [
                3.46932112,
                0.0,
                0.04228591
            ],
            [
                0.0,
                3.64612732,
                0.0
            ],
            [
                0.04228022,
                0.0,
                3.40800326
            ]
        ],
        "epsilon_electronic_avg": 3.5078172333333337,
        "epsilon_electronic_eig": [
            3.490890798697199,
            3.3864335813028013,
            3.64612732
        ]
    },
    "phonon": {
        "lowest_freq": -0.02012952755894289,
        "frequency": [
            -0.02012952755894289,
            -0.013911988947250988,
            -0.00993359625555625,
            4.973298407399797,
            5.582714287433486,
            6.910051764519993,
            7.011866173121346,
            7.848079681051988,
            7.995880782539927,
            8.231540610953838,
            9.13874730363483,
            9.299270646220219,
            9.681453244738545,
            9.944113999709844,
            10.178036996492771,
            10.366680931255289,
            10.80265776733755,
            11.638968140903684,
            11.691398697724104,
            11.791430661387494,
            12.504702607578158,
            13.203769952092165,
            13.548162093938583,
            14.148521009784481,
            14.219909714274976,
            14.29617066240924,
            15.015372181052724,
            15.74598229875012,
            16.245398710404157,
            17.518984160267724,
            18.522866768403546,
            19.031691569366473,
            21.683307480593555
        ]
    },
    "born_effective_charge": {
        "avg_abs_trace": 2.023636666666667,
        "tensors": [
            [
                [
                    1.04433,
                    0.0,
                    0.07336
                ],
                [
                    8e-05,
                    1.00872,
                    7e-05
                ],
                [
                    0.10141,
                    0.0,
                    1.22873
                ]
            ],
            [
                [
                    1.18317,
                    0.0,
                    0.03309
                ],
                [
                    8e-05,
                    1.02268,
                    -3e-05
                ],
                [
                    -0.03211,
                    0.0,
                    0.66422
                ]
            ],
            [
                [
                    0.89099,
                    0.0,
                    -0.22415
                ],
                [
                    0.0,
                    0.66149,
                    0.0
                ],
                [
                    -0.1725,
                    0.0,
                    1.43129
                ]
            ],
            [
                [
                    1.18318,
                    0.0,
                    0.03307
                ],
                [
                    -8e-05,
                    1.02268,
                    3e-05
                ],
                [
                    -0.03212,
                    0.0,
                    0.66421
                ]
            ],
            [
                [
                    1.04432,
                    0.0,
                    0.07338
                ],
                [
                    -8e-05,
                    1.00872,
                    -7e-05
                ],
                [
                    0.10143,
                    0.0,
                    1.22873
                ]
            ],
            [
                [
                    5.66783,
                    0.0,
                    0.18679
                ],
                [
                    0.0,
                    7.15526,
                    0.0
                ],
                [
                    0.19707,
                    -0.0,
                    5.27944
                ]
            ],
            [
                [
                    -2.83928,
                    0.0,
                    0.65577
                ],
                [
                    -0.00017,
                    -1.62406,
                    0.00019
                ],
                [
                    0.59879,
                    0.0,
                    -1.77487
                ]
            ],
            [
                [
                    -1.96196,
                    0.0,
                    -0.69673
                ],
                [
                    2e-05,
                    -1.6368,
                    -0.00019
                ],
                [
                    -0.64661,
                    0.0,
                    -2.95696
                ]
            ],
            [
                [
                    -1.41159,
                    0.0,
                    -0.09315
                ],
                [
                    0.0,
                    -5.35784,
                    0.0
                ],
                [
                    -0.06692,
                    0.0,
                    -1.0327
                ]
            ],
            [
                [
                    -1.96201,
                    0.0,
                    -0.69708
                ],
                [
                    -2e-05,
                    -1.6368,
                    0.00019
                ],
                [
                    -0.64692,
                    0.0,
                    -2.95677
                ]
            ],
            [
                [
                    -2.83898,
                    0.0,
                    0.65564
                ],
                [
                    0.00017,
                    -1.62406,
                    -0.00019
                ],
                [
                    0.59847,
                    0.0,
                    -1.77534
                ]
            ]
        ]
    },
    "band_gap": 4.1218,
    "is_direct": false,
    "formula": "Li5TaO5"
}