{
    "mp_id": "mp-752972",
    "nelements": 3,
    "nsites": 24,
    "elements": [
        "Na",
        "O",
        "V"
    ],
    "structure": {
        "@module": "pymatgen.core.structure",
        "@class": "Structure",
        "charge": null,
        "lattice": {
            "matrix": [
                [
                    7.22477977,
                    0.0,
                    0.00048267
                ],
                [
                    0.0,
                    3.61585308,
                    0.0
                ],
                [
                    -3.49788456,
                    0.0,
                    11.43065716
                ]
            ],
            "a": 7.224779786123005,
            "b": 3.61585308,
            "c": 11.95387466491705,
            "alpha": 90.0,
            "beta": 107.01075714495542,
            "gamma": 90.0,
            "volume": 298.61764536915285
        },
        "sites": [
            {
                "species": [
                    {
                        "element": "Na",
                        "occu": 1
                    }
                ],
                "abc": [
                    0.81624717,
                    0.25,
                    0.32013348
                ],
                "xyz": [
                    4.777416084304681,
                    0.90396327,
                    3.6597300333392613
                ],
                "label": "Na",
                "properties": {}
            },
            {
                "species": [
                    {
                        "element": "Na",
                        "occu": 1
                    }
                ],
                "abc": [
                    0.18375283,
                    0.75,
                    0.67986652
                ],
                "xyz": [
                    -1.0505208743046826,
                    2.7118898099999997,
                    7.77140979666074
                ],
                "label": "Na",
                "properties": {}
            },
            {
                "species": [
                    {
                        "element": "V",
                        "occu": 1
                    }
                ],
                "abc": [
                    0.89173882,
                    0.75,
                    0.08020695
                ],
                "xyz": [
                    6.162061934849979,
                    2.7118898099999997,
                    0.9172485628755115
                ],
                "label": "V",
                "properties": {}
            },
            {
                "species": [
                    {
                        "element": "V",
                        "occu": 1
                    }
                ],
                "abc": [
                    0.68071026,
                    0.75,
                    0.54363677
                ],
                "xyz": [
                    3.016403051648169,
                    2.7118898099999997,
                    6.214454095860968
                ],
                "label": "V",
                "properties": {}
            },
            {
                "species": [
                    {
                        "element": "V",
                        "occu": 1
                    }
                ],
                "abc": [
                    0.74038173,
                    0.75,
                    0.80954363
                ],
                "xyz": [
                    2.5174047809582487,
                    2.7118898099999997,
                    9.25397305064151
                ],
                "label": "V",
                "properties": {}
            },
            {
                "species": [
                    {
                        "element": "V",
                        "occu": 1
                    }
                ],
                "abc": [
                    0.25961827,
                    0.25,
                    0.19045637
                ],
                "xyz": [
                    1.2094904290417503,
                    0.90396327,
                    2.177166779358491
                ],
                "label": "V",
                "properties": {}
            },
            {
                "species": [
                    {
                        "element": "V",
                        "occu": 1
                    }
                ],
                "abc": [
                    0.31928974,
                    0.25,
                    0.45636323
                ],
                "xyz": [
                    0.7104921583518309,
                    0.90396327,
                    5.216685734139033
                ],
                "label": "V",
                "properties": {}
            },
            {
                "species": [
                    {
                        "element": "V",
                        "occu": 1
                    }
                ],
                "abc": [
                    0.10826118,
                    0.25,
                    0.91979305
                ],
                "xyz": [
                    -2.4351667248499798,
                    0.90396327,
                    10.513891267124489
                ],
                "label": "V",
                "properties": {}
            },
            {
                "species": [
                    {
                        "element": "O",
                        "occu": 1
                    }
                ],
                "abc": [
                    0.96034447,
                    0.25,
                    0.07144021
                ],
                "xyz": [
                    6.688387691565214,
                    0.90396327,
                    0.8170720774137387
                ],
                "label": "O",
                "properties": {}
            },
            {
                "species": [
                    {
                        "element": "O",
                        "occu": 1
                    }
                ],
                "abc": [
                    0.79515662,
                    0.75,
                    0.1873143
                ],
                "xyz": [
                    5.089627664320369,
                    2.7118898099999997,
                    2.1415093427111636
                ],
                "label": "O",
                "properties": {}
            },
            {
                "species": [
                    {
                        "element": "O",
                        "occu": 1
                    }
                ],
                "abc": [
                    0.80435883,
                    0.75,
                    0.4489764
                ],
                "xyz": [
                    4.240847785440484,
                    2.7118898099999997,
                    5.132483541207501
                ],
                "label": "O",
                "properties": {}
            },
            {
                "species": [
                    {
                        "element": "O",
                        "occu": 1
                    }
                ],
                "abc": [
                    0.85690854,
                    0.75,
                    0.67858173
                ],
                "xyz": [
                    3.8173749284671468,
                    2.7118898099999997,
                    7.7570487147146885
                ],
                "label": "O",
                "properties": {}
            },
            {
                "species": [
                    {
                        "element": "O",
                        "occu": 1
                    }
                ],
                "abc": [
                    0.81824695,
                    0.25,
                    0.82771062
                ],
                "xyz": [
                    3.0164178133781743,
                    0.90396327,
                    9.461671268166397
                ],
                "label": "O",
                "properties": {}
            },
            {
                "species": [
                    {
                        "element": "O",
                        "occu": 1
                    }
                ],
                "abc": [
                    0.47963792,
                    0.25,
                    0.27750811
                ],
                "xyz": [
                    2.494587008097097,
                    0.90396327,
                    3.172331571364414
                ],
                "label": "O",
                "properties": {}
            },
            {
                "species": [
                    {
                        "element": "O",
                        "occu": 1
                    }
                ],
                "abc": [
                    0.60208437,
                    0.25,
                    0.54286329
                ],
                "xyz": [
                    2.451053855927393,
                    0.90396327,
                    6.205574760802525
                ],
                "label": "O",
                "properties": {}
            },
            {
                "species": [
                    {
                        "element": "O",
                        "occu": 1
                    }
                ],
                "abc": [
                    0.30847239,
                    0.25,
                    0.04687873
                ],
                "xyz": [
                    2.0646686970161414,
                    0.90396327,
                    0.5360035810946882
                ],
                "label": "O",
                "properties": {}
            },
            {
                "species": [
                    {
                        "element": "O",
                        "occu": 1
                    }
                ],
                "abc": [
                    0.69152761,
                    0.75,
                    0.95312127
                ],
                "xyz": [
                    1.662226512983858,
                    2.7118898099999997,
                    10.895136248905311
                ],
                "label": "O",
                "properties": {}
            },
            {
                "species": [
                    {
                        "element": "O",
                        "occu": 1
                    }
                ],
                "abc": [
                    0.39791563,
                    0.75,
                    0.45713671
                ],
                "xyz": [
                    1.2758413540726077,
                    2.7118898099999997,
                    5.225565069197476
                ],
                "label": "O",
                "properties": {}
            },
            {
                "species": [
                    {
                        "element": "O",
                        "occu": 1
                    }
                ],
                "abc": [
                    0.52036208,
                    0.75,
                    0.72249189
                ],
                "xyz": [
                    1.2323082019029021,
                    2.7118898099999997,
                    8.258808258635586
                ],
                "label": "O",
                "properties": {}
            },
            {
                "species": [
                    {
                        "element": "O",
                        "occu": 1
                    }
                ],
                "abc": [
                    0.18175305,
                    0.75,
                    0.17228938
                ],
                "xyz": [
                    0.7104773966218257,
                    2.7118898099999997,
                    1.9694685618336043
                ],
                "label": "O",
                "properties": {}
            },
            {
                "species": [
                    {
                        "element": "O",
                        "occu": 1
                    }
                ],
                "abc": [
                    0.14309146,
                    0.25,
                    0.32141827
                ],
                "xyz": [
                    -0.09047971846714709,
                    0.90396327,
                    3.6740911152853117
                ],
                "label": "O",
                "properties": {}
            },
            {
                "species": [
                    {
                        "element": "O",
                        "occu": 1
                    }
                ],
                "abc": [
                    0.19564117,
                    0.25,
                    0.5510236
                ],
                "xyz": [
                    -0.513952575440485,
                    0.90396327,
                    6.2986562887925
                ],
                "label": "O",
                "properties": {}
            },
            {
                "species": [
                    {
                        "element": "O",
                        "occu": 1
                    }
                ],
                "abc": [
                    0.20484338,
                    0.25,
                    0.8126857
                ],
                "xyz": [
                    -1.3627324543203696,
                    0.90396327,
                    9.289630487288836
                ],
                "label": "O",
                "properties": {}
            },
            {
                "species": [
                    {
                        "element": "O",
                        "occu": 1
                    }
                ],
                "abc": [
                    0.03965553,
                    0.75,
                    0.92855979
                ],
                "xyz": [
                    -2.9614924815652146,
                    2.7118898099999997,
                    10.614067752586262
                ],
                "label": "O",
                "properties": {}
            }
        ]
    },
    "spacegroup": {
        "source": "spglib",
        "symbol": "P2_1/m",
        "number": 11,
        "point_group": "2/m",
        "crystal_system": "monoclinic",
        "hall": "-P 2yb"
    },
    "dielectric": {
        "epsilon_ionic": [
            [
                2.71192786,
                1e-08,
                2.35701856
            ],
            [
                1e-08,
                30.82307201,
                -3e-08
            ],
            [
                2.35701856,
                -3e-08,
                15.61085743
            ]
        ],
        "epsilon_ionic_avg": 16.381952433333336,
        "epsilon_ionic_eig": [
            2.2947244205159034,
            16.0280608694841,
            30.82307201
        ],
        "epsilon_electronic": [
            [
                3.38429335,
                0.0,
                0.40197245
            ],
            [
                0.0,
                6.2446594,
                0.0
            ],
            [
                0.40197053,
                0.0,
                5.60323638
            ]
        ],
        "epsilon_electronic_avg": 5.077396376666667,
        "epsilon_electronic_eig": [
            3.3137190517502373,
            5.673810678249763,
            6.2446594
        ]
    },
    "phonon": {
        "lowest_freq": -0.0895802529555645,
        "frequency": [
            -0.0895802529555645,
            -0.05801580656524802,
            -0.044805171745620986,
            1.5290194773663444,
            2.061210323685243,
            2.5255856112286925,
            2.7812328766754124,
            3.4337092701570735,
            3.5746603203773093,
            3.6303498089417965,
            3.776199921578964,
            4.1315593926492955,
            4.588803678486393,
            4.593384372981204,
            4.897036004571645,
            4.9311998066096665,
            5.3080375116332075,
            5.592641406381256,
            5.663724381485519,
            5.9786443604050765,
            6.0401473093372875,
            6.479057710320343,
            6.49512267956057,
            6.7525667302232515,
            6.822200107210161,
            6.979653734892901,
            7.090287776758781,
            7.545207762302016,
            7.589468643911724,
            7.690353585385026,
            7.8609534374457475,
            8.125521034373985,
            8.20092141650072,
            8.259856347037012,
            8.265477170401955,
            8.640592457385178,
            8.716792467109183,
            9.027300816025788,
            9.182535498188736,
            9.18307896255191,
            9.226584772772231,
            9.334895929223254,
            9.742966612843375,
            10.2295535850063,
            11.012001207861166,
            11.020621426782892,
            12.704348529237713,
            13.3546859243292,
            13.582015371538834,
            13.686235009121665,
            13.957633591927015,
            15.041727911709994,
            15.289887460106153,
            15.391378750559134,
            15.581356079779319,
            15.964916911335875,
            16.8370231426106,
            18.033028968507953,
            18.65866881723462,
            18.935973455232016,
            20.021506700895216,
            21.20874185472256,
            21.27824523047412,
            21.35783596849115,
            23.825437625858875,
            24.3152763054872,
            28.20584812218983,
            28.624449298674882,
            29.03342855152899,
            29.352569190661892,
            30.069369537800767,
            30.406498022302635
        ]
    },
    "born_effective_charge": {
        "avg_abs_trace": 2.751554305555556,
        "tensors": [
            [
                [
                    1.58754,
                    0.0,
                    -0.39432
                ],
                [
                    3e-05,
                    1.00474,
                    1e-05
                ],
                [
                    0.0316,
                    0.0,
                    1.5677
                ]
            ],
            [
                [
                    1.58758,
                    0.0,
                    -0.39433
                ],
                [
                    -3e-05,
                    1.00474,
                    -1e-05
                ],
                [
                    0.03157,
                    0.0,
                    1.5677
                ]
            ],
            [
                [
                    2.86113,
                    0.0,
                    0.02703
                ],
                [
                    0.00237,
                    6.92154,
                    -0.00052
                ],
                [
                    1.49428,
                    0.0,
                    4.47675
                ]
            ],
            [
                [
                    2.74523,
                    0.0,
                    0.54585
                ],
                [
                    -0.0029,
                    6.01918,
                    -0.00034
                ],
                [
                    1.1537,
                    0.0,
                    5.75764
                ]
            ],
            [
                [
                    2.00826,
                    0.0,
                    1.21452
                ],
                [
                    0.00242,
                    7.69475,
                    0.00033
                ],
                [
                    -1.22659,
                    0.0,
                    6.88282
                ]
            ],
            [
                [
                    2.00832,
                    0.0,
                    1.21523
                ],
                [
                    -0.00242,
                    7.69475,
                    -0.00033
                ],
                [
                    -1.22675,
                    0.0,
                    6.88237
                ]
            ],
            [
                [
                    2.74566,
                    0.0,
                    0.54511
                ],
                [
                    0.0029,
                    6.01918,
                    0.00034
                ],
                [
                    1.15329,
                    0.0,
                    5.75813
                ]
            ],
            [
                [
                    2.86104,
                    0.0,
                    0.02631
                ],
                [
                    -0.00237,
                    6.92154,
                    0.00052
                ],
                [
                    1.49372,
                    0.0,
                    4.47764
                ]
            ],
            [
                [
                    -1.12526,
                    0.0,
                    -0.1869
                ],
                [
                    -0.00348,
                    -5.97093,
                    -5e-05
                ],
                [
                    -0.57223,
                    0.0,
                    -1.22522
                ]
            ],
            [
                [
                    -1.34817,
                    0.0,
                    1.01502
                ],
                [
                    -0.00036,
                    -0.76575,
                    0.00046
                ],
                [
                    0.80398,
                    0.0,
                    -1.82432
                ]
            ],
            [
                [
                    -1.594,
                    0.0,
                    0.86549
                ],
                [
                    0.00043,
                    -0.74964,
                    -0.00019
                ],
                [
                    1.23364,
                    0.0,
                    -1.93168
                ]
            ],
            [
                [
                    -0.72327,
                    0.0,
                    -0.66021
                ],
                [
                    0.00082,
                    -1.15849,
                    0.00051
                ],
                [
                    -0.16467,
                    0.0,
                    -4.73286
                ]
            ],
            [
                [
                    -0.9301,
                    0.0,
                    -0.50952
                ],
                [
                    -0.00354,
                    -6.19648,
                    -0.00069
                ],
                [
                    -0.42271,
                    0.0,
                    -1.40313
                ]
            ],
            [
                [
                    -1.41361,
                    0.0,
                    -0.73701
                ],
                [
                    0.00031,
                    -0.54796,
                    0.00034
                ],
                [
                    -0.84792,
                    0.0,
                    -2.01084
                ]
            ],
            [
                [
                    -1.2992,
                    0.0,
                    -0.6038
                ],
                [
                    0.00218,
                    -5.14665,
                    -0.00043
                ],
                [
                    -1.14195,
                    0.0,
                    -1.22324
                ]
            ],
            [
                [
                    -0.76661,
                    0.0,
                    -0.57735
                ],
                [
                    -0.00026,
                    -1.10432,
                    -0.00067
                ],
                [
                    -0.34419,
                    0.0,
                    -4.33289
                ]
            ],
            [
                [
                    -0.76977,
                    0.0,
                    -0.5766
                ],
                [
                    0.00026,
                    -1.10432,
                    0.00067
                ],
                [
                    -0.34166,
                    0.0,
                    -4.33303
                ]
            ],
            [
                [
                    -1.29931,
                    0.0,
                    -0.60384
                ],
                [
                    -0.00218,
                    -5.14665,
                    0.00043
                ],
                [
                    -1.14195,
                    0.0,
                    -1.22346
                ]
            ],
            [
                [
                    -1.4122,
                    0.0,
                    -0.73622
                ],
                [
                    -0.00031,
                    -0.54796,
                    -0.00034
                ],
                [
                    -0.84736,
                    0.0,
                    -2.0098
                ]
            ],
            [
                [
                    -0.92987,
                    0.0,
                    -0.50944
                ],
                [
                    0.00354,
                    -6.19648,
                    0.00069
                ],
                [
                    -0.4228,
                    0.0,
                    -1.40331
                ]
            ],
            [
                [
                    -0.72255,
                    0.0,
                    -0.66006
                ],
                [
                    -0.00082,
                    -1.15849,
                    -0.00051
                ],
                [
                    -0.16508,
                    0.0,
                    -4.73309
                ]
            ],
            [
                [
                    -1.59747,
                    0.0,
                    0.86681
                ],
                [
                    -0.00043,
                    -0.74964,
                    0.00019
                ],
                [
                    1.23667,
                    0.0,
                    -1.93315
                ]
            ],
            [
                [
                    -1.34872,
                    0.0,
                    1.01523
                ],
                [
                    0.00036,
                    -0.76575,
                    -0.00046
                ],
                [
                    0.80614,
                    0.0,
                    -1.82576
                ]
            ],
            [
                [
                    -1.12467,
                    0.0,
                    -0.187
                ],
                [
                    0.00348,
                    -5.97093,
                    5e-05
                ],
                [
                    -0.57274,
                    0.0,
                    -1.22498
                ]
            ]
        ]
    },
    "band_gap": 1.8736,
    "is_direct": false,
    "formula": "NaV3O8"
}