{
    "mp_id": "mp-755895",
    "nelements": 3,
    "nsites": 12,
    "elements": [
        "Ba",
        "O",
        "Zr"
    ],
    "structure": {
        "@module": "pymatgen.core.structure",
        "@class": "Structure",
        "charge": null,
        "lattice": {
            "matrix": [
                [
                    -2.10651871,
                    2.10651871,
                    10.92732868
                ],
                [
                    2.10651871,
                    -2.10651871,
                    10.92732868
                ],
                [
                    2.10651871,
                    2.10651871,
                    -10.92732868
                ]
            ],
            "a": 11.326135891464073,
            "b": 11.326135891464073,
            "c": 11.326135891464073,
            "alpha": 158.56258770939442,
            "beta": 158.56258770939442,
            "gamma": 30.49937132666255,
            "volume": 193.95663433768996
        },
        "sites": [
            {
                "species": [
                    {
                        "element": "Ba",
                        "occu": 1
                    }
                ],
                "abc": [
                    0.0,
                    0.0,
                    0.0
                ],
                "xyz": [
                    0.0,
                    0.0,
                    0.0
                ],
                "label": "Ba",
                "properties": {}
            },
            {
                "species": [
                    {
                        "element": "Ba",
                        "occu": 1
                    }
                ],
                "abc": [
                    0.81389699,
                    0.81389699,
                    0.0
                ],
                "xyz": [
                    0.0,
                    0.0,
                    17.787439842785346
                ],
                "label": "Ba",
                "properties": {}
            },
            {
                "species": [
                    {
                        "element": "Ba",
                        "occu": 1
                    }
                ],
                "abc": [
                    0.18610301,
                    0.18610301,
                    0.0
                ],
                "xyz": [
                    0.0,
                    0.0,
                    4.067217517214654
                ],
                "label": "Ba",
                "properties": {}
            },
            {
                "species": [
                    {
                        "element": "Zr",
                        "occu": 1
                    }
                ],
                "abc": [
                    0.59740729,
                    0.59740729,
                    0.0
                ],
                "xyz": [
                    0.0,
                    0.0,
                    13.056131627316155
                ],
                "label": "Zr",
                "properties": {}
            },
            {
                "species": [
                    {
                        "element": "Zr",
                        "occu": 1
                    }
                ],
                "abc": [
                    0.40259271,
                    0.40259271,
                    0.0
                ],
                "xyz": [
                    0.0,
                    0.0,
                    8.798525732683846
                ],
                "label": "Zr",
                "properties": {}
            },
            {
                "species": [
                    {
                        "element": "O",
                        "occu": 1
                    }
                ],
                "abc": [
                    0.09622638,
                    0.59622638,
                    0.5
                ],
                "xyz": [
                    2.1065187099999996,
                    2.220446049250313e-16,
                    2.102994563893156
                ],
                "label": "O",
                "properties": {}
            },
            {
                "species": [
                    {
                        "element": "O",
                        "occu": 1
                    }
                ],
                "abc": [
                    0.5,
                    0.5,
                    0.0
                ],
                "xyz": [
                    0.0,
                    0.0,
                    10.92732868
                ],
                "label": "O",
                "properties": {}
            },
            {
                "species": [
                    {
                        "element": "O",
                        "occu": 1
                    }
                ],
                "abc": [
                    0.69386269,
                    0.69386269,
                    0.0
                ],
                "xyz": [
                    0.0,
                    0.0,
                    15.1641313448379
                ],
                "label": "O",
                "properties": {}
            },
            {
                "species": [
                    {
                        "element": "O",
                        "occu": 1
                    }
                ],
                "abc": [
                    0.40377362,
                    0.90377362,
                    0.5
                ],
                "xyz": [
                    2.1065187100000005,
                    -2.220446049250313e-16,
                    8.824334116106844
                ],
                "label": "O",
                "properties": {}
            },
            {
                "species": [
                    {
                        "element": "O",
                        "occu": 1
                    }
                ],
                "abc": [
                    0.59622638,
                    0.09622638,
                    0.5
                ],
                "xyz": [
                    2.220446049250313e-16,
                    2.1065187099999996,
                    2.102994563893156
                ],
                "label": "O",
                "properties": {}
            },
            {
                "species": [
                    {
                        "element": "O",
                        "occu": 1
                    }
                ],
                "abc": [
                    0.30613731,
                    0.30613731,
                    0.0
                ],
                "xyz": [
                    0.0,
                    0.0,
                    6.690526015162102
                ],
                "label": "O",
                "properties": {}
            },
            {
                "species": [
                    {
                        "element": "O",
                        "occu": 1
                    }
                ],
                "abc": [
                    0.90377362,
                    0.40377362,
                    0.5
                ],
                "xyz": [
                    -2.220446049250313e-16,
                    2.1065187100000005,
                    8.824334116106844
                ],
                "label": "O",
                "properties": {}
            }
        ]
    },
    "spacegroup": {
        "source": "spglib",
        "symbol": "I4/mmm",
        "number": 139,
        "point_group": "4/mmm",
        "crystal_system": "tetragonal",
        "hall": "-I 4 2"
    },
    "dielectric": {
        "epsilon_ionic": [
            [
                31.76058851,
                -0.0,
                0.0
            ],
            [
                -0.0,
                31.76090109,
                0.0
            ],
            [
                0.0,
                0.0,
                16.13624146
            ]
        ],
        "epsilon_ionic_avg": 26.55257702,
        "epsilon_ionic_eig": [
            31.76058851,
            31.76090109,
            16.13624146
        ],
        "epsilon_electronic": [
            [
                4.47242454,
                0.0,
                -0.0
            ],
            [
                0.0,
                4.47242454,
                -0.0
            ],
            [
                0.0,
                0.0,
                4.56340993
            ]
        ],
        "epsilon_electronic_avg": 4.502753003333333,
        "epsilon_electronic_eig": [
            4.47242454,
            4.47242454,
            4.56340993
        ]
    },
    "phonon": {
        "lowest_freq": -0.036158447166276204,
        "frequency": [
            -0.036158447166276204,
            -0.011334919874299075,
            -0.011334919863518225,
            1.9544462612523907,
            1.9544462612523907,
            2.1539143952145947,
            2.1539143952145947,
            3.0483434257763733,
            3.0483434257763733,
            3.470543781144003,
            3.470543781144003,
            3.753265856919241,
            4.1159946214443135,
            4.289533045116574,
            5.094108374177497,
            5.094108374177497,
            5.810381952016557,
            5.920943805423735,
            5.920943805423735,
            6.658139318425223,
            6.658139318425223,
            6.800387286488257,
            6.945877644393069,
            6.945877644393069,
            7.146609290428338,
            7.146609290428338,
            7.296540473080132,
            8.962054661083998,
            11.978686731884823,
            14.046236564615402,
            16.29701468353158,
            16.29701468353158,
            16.40341888650909,
            16.40341888650909,
            16.565626472367818,
            19.853835306627815
        ]
    },
    "born_effective_charge": {
        "avg_abs_trace": 3.165512222222221,
        "tensors": [
            [
                [
                    2.75452,
                    0.0,
                    -0.0
                ],
                [
                    0.0,
                    2.75453,
                    0.0
                ],
                [
                    -0.0,
                    -0.0,
                    2.68017
                ]
            ],
            [
                [
                    2.49926,
                    -0.0,
                    -0.0
                ],
                [
                    -0.0,
                    2.49926,
                    8e-05
                ],
                [
                    0.0,
                    0.0,
                    2.97701
                ]
            ],
            [
                [
                    2.49926,
                    0.0,
                    0.0
                ],
                [
                    -0.0,
                    2.49926,
                    -8e-05
                ],
                [
                    0.0,
                    0.0,
                    2.97693
                ]
            ],
            [
                [
                    5.57504,
                    0.0,
                    2e-05
                ],
                [
                    -0.0,
                    5.5751,
                    0.00016
                ],
                [
                    -0.0,
                    -0.0,
                    5.26941
                ]
            ],
            [
                [
                    5.57504,
                    0.0,
                    -2e-05
                ],
                [
                    0.0,
                    5.5751,
                    -0.00016
                ],
                [
                    -0.0,
                    -0.0,
                    5.26935
                ]
            ],
            [
                [
                    -2.01456,
                    0.0,
                    -1e-05
                ],
                [
                    0.0,
                    -4.35976,
                    -5e-05
                ],
                [
                    0.0,
                    -0.0,
                    -1.86703
                ]
            ],
            [
                [
                    -2.01659,
                    0.0,
                    0.0
                ],
                [
                    0.0,
                    -2.0166,
                    0.0
                ],
                [
                    -0.0,
                    -0.0,
                    -4.30731
                ]
            ],
            [
                [
                    -2.06897,
                    -0.0,
                    4e-05
                ],
                [
                    0.0,
                    -2.06899,
                    -0.00015
                ],
                [
                    -0.0,
                    -0.0,
                    -3.69871
                ]
            ],
            [
                [
                    -4.35973,
                    0.0,
                    -1e-05
                ],
                [
                    -0.0,
                    -2.01456,
                    -1e-05
                ],
                [
                    0.0,
                    0.0,
                    -1.86703
                ]
            ],
            [
                [
                    -4.35973,
                    -0.0,
                    1e-05
                ],
                [
                    0.0,
                    -2.01456,
                    1e-05
                ],
                [
                    -0.0,
                    0.0,
                    -1.86703
                ]
            ],
            [
                [
                    -2.06897,
                    0.0,
                    -4e-05
                ],
                [
                    -0.0,
                    -2.06899,
                    0.00015
                ],
                [
                    0.0,
                    0.0,
                    -3.69873
                ]
            ],
            [
                [
                    -2.01456,
                    0.0,
                    1e-05
                ],
                [
                    0.0,
                    -4.35976,
                    5e-05
                ],
                [
                    -0.0,
                    -0.0,
                    -1.86703
                ]
            ]
        ]
    },
    "band_gap": 3.5008000000000004,
    "is_direct": false,
    "formula": "Ba3Zr2O7"
}