{
    "mp_id": "mp-7610",
    "nelements": 4,
    "nsites": 8,
    "elements": [
        "Ca",
        "Li",
        "O",
        "Si"
    ],
    "structure": {
        "@module": "pymatgen.core.structure",
        "@class": "Structure",
        "charge": null,
        "lattice": {
            "matrix": [
                [
                    -2.51594189,
                    2.51594189,
                    3.21942315
                ],
                [
                    2.51594189,
                    -2.51594189,
                    3.21942315
                ],
                [
                    2.51594189,
                    2.51594189,
                    -3.21942315
                ]
            ],
            "a": 4.798396878799155,
            "b": 4.798396878799155,
            "c": 4.798396878799155,
            "alpha": 116.75374308902414,
            "beta": 116.75374308902414,
            "gamma": 95.72111485527526,
            "volume": 81.51532533087877
        },
        "sites": [
            {
                "species": [
                    {
                        "element": "Li",
                        "occu": 1
                    }
                ],
                "abc": [
                    0.75,
                    0.25,
                    0.5
                ],
                "xyz": [
                    2.220446049250313e-16,
                    2.5159418899999997,
                    1.609711575
                ],
                "label": "Li",
                "properties": {}
            },
            {
                "species": [
                    {
                        "element": "Li",
                        "occu": 1
                    }
                ],
                "abc": [
                    0.25,
                    0.75,
                    0.5
                ],
                "xyz": [
                    2.5159418899999997,
                    2.220446049250313e-16,
                    1.609711575
                ],
                "label": "Li",
                "properties": {}
            },
            {
                "species": [
                    {
                        "element": "Ca",
                        "occu": 1
                    }
                ],
                "abc": [
                    0.5,
                    0.5,
                    0.0
                ],
                "xyz": [
                    0.0,
                    0.0,
                    3.21942315
                ],
                "label": "Ca",
                "properties": {}
            },
            {
                "species": [
                    {
                        "element": "Si",
                        "occu": 1
                    }
                ],
                "abc": [
                    0.0,
                    0.0,
                    0.0
                ],
                "xyz": [
                    0.0,
                    0.0,
                    0.0
                ],
                "label": "Si",
                "properties": {}
            },
            {
                "species": [
                    {
                        "element": "O",
                        "occu": 1
                    }
                ],
                "abc": [
                    0.6642975,
                    0.6642975,
                    0.61566553
                ],
                "xyz": [
                    1.5489786971560517,
                    1.5489786971560517,
                    2.29522164003523
                ],
                "label": "O",
                "properties": {}
            },
            {
                "species": [
                    {
                        "element": "O",
                        "occu": 1
                    }
                ],
                "abc": [
                    0.04863197,
                    0.04863197,
                    0.38433447
                ],
                "xyz": [
                    0.9669631928439483,
                    0.9669631928439483,
                    -0.9242015099647695
                ],
                "label": "O",
                "properties": {}
            },
            {
                "species": [
                    {
                        "element": "O",
                        "occu": 1
                    }
                ],
                "abc": [
                    0.95136803,
                    0.3357025,
                    0.0
                ],
                "xyz": [
                    -1.5489786971560517,
                    1.5489786971560517,
                    4.14362465996477
                ],
                "label": "O",
                "properties": {}
            },
            {
                "species": [
                    {
                        "element": "O",
                        "occu": 1
                    }
                ],
                "abc": [
                    0.3357025,
                    0.95136803,
                    0.0
                ],
                "xyz": [
                    1.5489786971560517,
                    -1.5489786971560517,
                    4.14362465996477
                ],
                "label": "O",
                "properties": {}
            }
        ]
    },
    "spacegroup": {
        "source": "spglib",
        "symbol": "I-42m",
        "number": 121,
        "point_group": "-42m",
        "crystal_system": "tetragonal",
        "hall": "I -4 2"
    },
    "dielectric": {
        "epsilon_ionic": [
            [
                5.27496594,
                1e-08,
                -0.0
            ],
            [
                1e-08,
                5.27495449,
                -0.0
            ],
            [
                -0.0,
                -0.0,
                9.93481721
            ]
        ],
        "epsilon_ionic_avg": 6.82824588,
        "epsilon_ionic_eig": [
            5.274965940008734,
            5.274954489991266,
            9.93481721
        ],
        "epsilon_electronic": [
            [
                3.07051042,
                0.0,
                0.0
            ],
            [
                0.0,
                3.07051042,
                -0.0
            ],
            [
                0.0,
                0.0,
                3.15972658
            ]
        ],
        "epsilon_electronic_avg": 3.1002491400000003,
        "epsilon_electronic_eig": [
            3.07051042,
            3.07051042,
            3.15972658
        ]
    },
    "phonon": {
        "lowest_freq": -0.030788179473430533,
        "frequency": [
            -0.030788179473430533,
            -0.027599820398869667,
            -0.027599820398869667,
            5.571063834029976,
            7.19805541721339,
            7.19805541721339,
            8.089789515141295,
            8.089789515141295,
            10.19834250774439,
            10.900670982985465,
            10.998726822283572,
            12.186834782381284,
            12.93625436099044,
            13.73911571285334,
            13.73911571285334,
            14.81303046541115,
            14.81303046541115,
            15.153947466771308,
            15.843987155680628,
            15.843987155680628,
            23.696170841137743,
            25.464901883772377,
            26.032196000637907,
            26.032196000637907
        ]
    },
    "born_effective_charge": {
        "avg_abs_trace": 1.8454958333333336,
        "tensors": [
            [
                [
                    1.04314,
                    -0.03489,
                    1e-05
                ],
                [
                    0.03489,
                    1.04314,
                    -1e-05
                ],
                [
                    0.0,
                    0.0,
                    0.92587
                ]
            ],
            [
                [
                    1.04314,
                    0.03489,
                    -1e-05
                ],
                [
                    -0.03489,
                    1.04314,
                    1e-05
                ],
                [
                    0.0,
                    0.0,
                    0.92587
                ]
            ],
            [
                [
                    2.37409,
                    0.0,
                    -0.0
                ],
                [
                    -0.0,
                    2.37409,
                    -0.0
                ],
                [
                    0.0,
                    0.0,
                    2.51649
                ]
            ],
            [
                [
                    3.00834,
                    0.0,
                    -0.0
                ],
                [
                    0.0,
                    3.00834,
                    -0.0
                ],
                [
                    0.0,
                    0.0,
                    2.84029
                ]
            ],
            [
                [
                    -1.86713,
                    -0.39663,
                    -0.12285
                ],
                [
                    -0.39663,
                    -1.86713,
                    -0.12284
                ],
                [
                    -0.16639,
                    -0.16639,
                    -1.8021
                ]
            ],
            [
                [
                    -1.86722,
                    -0.39667,
                    0.12267
                ],
                [
                    -0.39667,
                    -1.86723,
                    0.12269
                ],
                [
                    0.16639,
                    0.16639,
                    -1.8021
                ]
            ],
            [
                [
                    -1.86722,
                    0.39667,
                    -0.12267
                ],
                [
                    0.39663,
                    -1.86713,
                    0.12284
                ],
                [
                    -0.16642,
                    0.16642,
                    -1.80217
                ]
            ],
            [
                [
                    -1.86713,
                    0.39663,
                    0.12285
                ],
                [
                    0.39667,
                    -1.86723,
                    -0.12269
                ],
                [
                    0.16642,
                    -0.16642,
                    -1.80217
                ]
            ]
        ]
    },
    "band_gap": 5.3448,
    "is_direct": false,
    "formula": "Li2CaSiO4"
}