{
    "mp_id": "mp-766463",
    "nelements": 4,
    "nsites": 34,
    "elements": [
        "B",
        "Ga",
        "Na",
        "O"
    ],
    "structure": {
        "@module": "pymatgen.core.structure",
        "@class": "Structure",
        "charge": null,
        "lattice": {
            "matrix": [
                [
                    6.18536906,
                    0.0,
                    0.00146581
                ],
                [
                    0.0,
                    8.67734532,
                    0.0
                ],
                [
                    -1.10053532,
                    0.0,
                    6.69911818
                ]
            ],
            "a": 6.185369233683972,
            "b": 8.67734532,
            "c": 6.788914668794565,
            "alpha": 90.0,
            "beta": 99.31567773307569,
            "gamma": 90.0,
            "volume": 359.57297640230723
        },
        "sites": [
            {
                "species": [
                    {
                        "element": "Na",
                        "occu": 1
                    }
                ],
                "abc": [
                    0.25015324,
                    0.53400129,
                    0.17536873
                ],
                "xyz": [
                    1.354290629566211,
                    4.633713594655463,
                    1.1751825244672358
                ],
                "label": "Na",
                "properties": {}
            },
            {
                "species": [
                    {
                        "element": "Na",
                        "occu": 1
                    }
                ],
                "abc": [
                    0.25015324,
                    0.96599871,
                    0.17536873
                ],
                "xyz": [
                    1.354290629566211,
                    8.382304385344538,
                    1.1751825244672358
                ],
                "label": "Na",
                "properties": {}
            },
            {
                "species": [
                    {
                        "element": "Na",
                        "occu": 1
                    }
                ],
                "abc": [
                    0.42380546,
                    0.25,
                    0.49710167
                ],
                "xyz": [
                    2.0743152342770834,
                    2.16933633,
                    3.3307640530866833
                ],
                "label": "Na",
                "properties": {}
            },
            {
                "species": [
                    {
                        "element": "Na",
                        "occu": 1
                    }
                ],
                "abc": [
                    0.57619454,
                    0.75,
                    0.50289833
                ],
                "xyz": [
                    3.010518505722917,
                    6.50800899,
                    3.3698199369133164
                ],
                "label": "Na",
                "properties": {}
            },
            {
                "species": [
                    {
                        "element": "Na",
                        "occu": 1
                    }
                ],
                "abc": [
                    0.74984676,
                    0.03400129,
                    0.82463127
                ],
                "xyz": [
                    3.7305431104337887,
                    0.2950409346554628,
                    5.525401465532765
                ],
                "label": "Na",
                "properties": {}
            },
            {
                "species": [
                    {
                        "element": "Na",
                        "occu": 1
                    }
                ],
                "abc": [
                    0.74984676,
                    0.46599871,
                    0.82463127
                ],
                "xyz": [
                    3.7305431104337887,
                    4.043631725344538,
                    5.525401465532765
                ],
                "label": "Na",
                "properties": {}
            },
            {
                "species": [
                    {
                        "element": "Ga",
                        "occu": 1
                    }
                ],
                "abc": [
                    0.2100622,
                    0.25,
                    0.86705193
                ],
                "xyz": [
                    0.34509095931636424,
                    2.16933633,
                    5.80879125854047
                ],
                "label": "Ga",
                "properties": {}
            },
            {
                "species": [
                    {
                        "element": "Ga",
                        "occu": 1
                    }
                ],
                "abc": [
                    0.7899378,
                    0.75,
                    0.13294807
                ],
                "xyz": [
                    4.739742780683636,
                    6.50800899,
                    0.8917927314595306
                ],
                "label": "Ga",
                "properties": {}
            },
            {
                "species": [
                    {
                        "element": "B",
                        "occu": 1
                    }
                ],
                "abc": [
                    0.01692577,
                    0.25,
                    0.22116744
                ],
                "xyz": [
                    -0.13871044527930462,
                    2.16933633,
                    1.4816516280909828
                ],
                "label": "B",
                "properties": {}
            },
            {
                "species": [
                    {
                        "element": "B",
                        "occu": 1
                    }
                ],
                "abc": [
                    0.12333257,
                    0.75,
                    0.47040434
                ],
                "xyz": [
                    0.2451608717169954,
                    6.50800899,
                    3.151475048159333
                ],
                "label": "B",
                "properties": {}
            },
            {
                "species": [
                    {
                        "element": "B",
                        "occu": 1
                    }
                ],
                "abc": [
                    0.24737915,
                    0.54436259,
                    0.71859436
                ],
                "xyz": [
                    0.7392928665663038,
                    4.723622172719579,
                    4.814311151953326
                ],
                "label": "B",
                "properties": {}
            },
            {
                "species": [
                    {
                        "element": "B",
                        "occu": 1
                    }
                ],
                "abc": [
                    0.24737915,
                    0.95563741,
                    0.71859436
                ],
                "xyz": [
                    0.7392928665663038,
                    8.292395807280421,
                    4.814311151953326
                ],
                "label": "B",
                "properties": {}
            },
            {
                "species": [
                    {
                        "element": "B",
                        "occu": 1
                    }
                ],
                "abc": [
                    0.75262085,
                    0.04436259,
                    0.28140564
                ],
                "xyz": [
                    4.345540873433697,
                    0.38494951271957883,
                    1.8862728380466738
                ],
                "label": "B",
                "properties": {}
            },
            {
                "species": [
                    {
                        "element": "B",
                        "occu": 1
                    }
                ],
                "abc": [
                    0.75262085,
                    0.45563741,
                    0.28140564
                ],
                "xyz": [
                    4.345540873433697,
                    3.9537231472804217,
                    1.8862728380466738
                ],
                "label": "B",
                "properties": {}
            },
            {
                "species": [
                    {
                        "element": "B",
                        "occu": 1
                    }
                ],
                "abc": [
                    0.87666743,
                    0.25,
                    0.52959566
                ],
                "xyz": [
                    4.839672868283005,
                    2.16933633,
                    3.549108941840667
                ],
                "label": "B",
                "properties": {}
            },
            {
                "species": [
                    {
                        "element": "B",
                        "occu": 1
                    }
                ],
                "abc": [
                    0.98307423,
                    0.75,
                    0.77883256
                ],
                "xyz": [
                    5.223544185279305,
                    6.50800899,
                    5.218932361909017
                ],
                "label": "B",
                "properties": {}
            },
            {
                "species": [
                    {
                        "element": "O",
                        "occu": 1
                    }
                ],
                "abc": [
                    0.11588227,
                    0.60764944,
                    0.84441086
                ],
                "xyz": [
                    -0.212529368561009,
                    5.272784024384621,
                    5.656978005005624
                ],
                "label": "O",
                "properties": {}
            },
            {
                "species": [
                    {
                        "element": "O",
                        "occu": 1
                    }
                ],
                "abc": [
                    0.11588227,
                    0.89235056,
                    0.84441086
                ],
                "xyz": [
                    -0.212529368561009,
                    7.74323395561538,
                    5.656978005005624
                ],
                "label": "O",
                "properties": {}
            },
            {
                "species": [
                    {
                        "element": "O",
                        "occu": 1
                    }
                ],
                "abc": [
                    0.06814771,
                    0.25,
                    0.43626433
                ],
                "xyz": [
                    -0.05860556707728298,
                    2.16933633,
                    2.922686195983314
                ],
                "label": "O",
                "properties": {}
            },
            {
                "species": [
                    {
                        "element": "O",
                        "occu": 1
                    }
                ],
                "abc": [
                    0.07632957,
                    0.75,
                    0.25580776
                ],
                "xyz": [
                    0.19060108563102096,
                    6.50800899,
                    1.7137983002480783
                ],
                "label": "O",
                "properties": {}
            },
            {
                "species": [
                    {
                        "element": "O",
                        "occu": 1
                    }
                ],
                "abc": [
                    0.26701683,
                    0.61060528,
                    0.53788174
                ],
                "xyz": [
                    1.0596397859282232,
                    5.29843286877529,
                    3.603724739063616
                ],
                "label": "O",
                "properties": {}
            },
            {
                "species": [
                    {
                        "element": "O",
                        "occu": 1
                    }
                ],
                "abc": [
                    0.26701683,
                    0.88939472,
                    0.53788174
                ],
                "xyz": [
                    1.0596397859282232,
                    7.717585111224711,
                    3.603724739063616
                ],
                "label": "O",
                "properties": {}
            },
            {
                "species": [
                    {
                        "element": "O",
                        "occu": 1
                    }
                ],
                "abc": [
                    0.22128646,
                    0.25,
                    0.13897024
                ],
                "xyz": [
                    1.2157967655320507,
                    2.16933633,
                    0.9313024251688958
                ],
                "label": "O",
                "properties": {}
            },
            {
                "species": [
                    {
                        "element": "O",
                        "occu": 1
                    }
                ],
                "abc": [
                    0.36736705,
                    0.08692455,
                    0.77950787
                ],
                "xyz": [
                    1.4144248415805043,
                    0.7542743371356061,
                    5.2225538336656365
                ],
                "label": "O",
                "properties": {}
            },
            {
                "species": [
                    {
                        "element": "O",
                        "occu": 1
                    }
                ],
                "abc": [
                    0.36736705,
                    0.41307545,
                    0.77950787
                ],
                "xyz": [
                    1.4144248415805043,
                    3.5843983228643945,
                    5.2225538336656365
                ],
                "label": "O",
                "properties": {}
            },
            {
                "species": [
                    {
                        "element": "O",
                        "occu": 1
                    }
                ],
                "abc": [
                    0.63263295,
                    0.91307545,
                    0.22049213
                ],
                "xyz": [
                    3.6704088984194954,
                    7.923070982864394,
                    1.478030156334363
                ],
                "label": "O",
                "properties": {}
            },
            {
                "species": [
                    {
                        "element": "O",
                        "occu": 1
                    }
                ],
                "abc": [
                    0.63263295,
                    0.58692455,
                    0.22049213
                ],
                "xyz": [
                    3.6704088984194954,
                    5.0929469971356065,
                    1.478030156334363
                ],
                "label": "O",
                "properties": {}
            },
            {
                "species": [
                    {
                        "element": "O",
                        "occu": 1
                    }
                ],
                "abc": [
                    0.77871354,
                    0.75,
                    0.86102976
                ],
                "xyz": [
                    3.86903697446795,
                    6.50800899,
                    5.769281564831104
                ],
                "label": "O",
                "properties": {}
            },
            {
                "species": [
                    {
                        "element": "O",
                        "occu": 1
                    }
                ],
                "abc": [
                    0.73298317,
                    0.11060528,
                    0.46211826
                ],
                "xyz": [
                    4.025193954071777,
                    0.9597602087752897,
                    3.0968592509363844
                ],
                "label": "O",
                "properties": {}
            },
            {
                "species": [
                    {
                        "element": "O",
                        "occu": 1
                    }
                ],
                "abc": [
                    0.73298317,
                    0.38939472,
                    0.46211826
                ],
                "xyz": [
                    4.025193954071777,
                    3.378912451224711,
                    3.0968592509363844
                ],
                "label": "O",
                "properties": {}
            },
            {
                "species": [
                    {
                        "element": "O",
                        "occu": 1
                    }
                ],
                "abc": [
                    0.92367043,
                    0.25,
                    0.74419224
                ],
                "xyz": [
                    4.89423265436898,
                    2.16933633,
                    4.986785689751922
                ],
                "label": "O",
                "properties": {}
            },
            {
                "species": [
                    {
                        "element": "O",
                        "occu": 1
                    }
                ],
                "abc": [
                    0.93185229,
                    0.75,
                    0.56373567
                ],
                "xyz": [
                    5.1434393070772835,
                    6.50800899,
                    3.777897794016686
                ],
                "label": "O",
                "properties": {}
            },
            {
                "species": [
                    {
                        "element": "O",
                        "occu": 1
                    }
                ],
                "abc": [
                    0.88411773,
                    0.10764944,
                    0.15558914
                ],
                "xyz": [
                    5.297363108561009,
                    0.9341113643846208,
                    1.0436059849943764
                ],
                "label": "O",
                "properties": {}
            },
            {
                "species": [
                    {
                        "element": "O",
                        "occu": 1
                    }
                ],
                "abc": [
                    0.88411773,
                    0.39235056,
                    0.15558914
                ],
                "xyz": [
                    5.297363108561009,
                    3.4045612956153795,
                    1.0436059849943764
                ],
                "label": "O",
                "properties": {}
            }
        ]
    },
    "spacegroup": {
        "source": "spglib",
        "symbol": "P2_1/m",
        "number": 11,
        "point_group": "2/m",
        "crystal_system": "monoclinic",
        "hall": "-P 2yb"
    },
    "dielectric": {
        "epsilon_ionic": [
            [
                2.35197447,
                -1e-08,
                -0.34489795
            ],
            [
                -1e-08,
                4.45019269,
                -0.0
            ],
            [
                -0.34489795,
                -0.0,
                3.88660054
            ]
        ],
        "epsilon_ionic_avg": 3.5629225666666655,
        "epsilon_ionic_eig": [
            2.2780242349144015,
            3.960550775085597,
            4.450192689999999
        ],
        "epsilon_electronic": [
            [
                2.42423069,
                0.0,
                -0.07340231
            ],
            [
                0.0,
                2.64973556,
                0.0
            ],
            [
                -0.0734012,
                0.0,
                2.62291488
            ]
        ],
        "epsilon_electronic_avg": 2.565627043333333,
        "epsilon_electronic_eig": [
            2.4000548936815314,
            2.6470906763184687,
            2.64973556
        ]
    },
    "phonon": {
        "lowest_freq": -0.10630842763090162,
        "frequency": [
            -0.10630842763090162,
            -0.06520225085242835,
            -0.04231949280560864,
            2.681001734586576,
            2.979002089500714,
            3.2458455893810703,
            3.4304326670594083,
            3.6306871675925163,
            3.9445176993317737,
            4.13058878478557,
            4.211044775745171,
            4.286980992145546,
            4.37444576813465,
            4.564764518080227,
            4.73120191615094,
            4.787217406688443,
            4.803611670300984,
            4.900584094709968,
            4.943772262593494,
            5.081330196862503,
            5.166186050302775,
            5.576903190431215,
            5.7821111700906895,
            5.8172023005019,
            5.863052772621745,
            5.931352470939878,
            6.123279818385097,
            6.267761042775934,
            6.435011987540587,
            6.782436121653918,
            6.869877052746409,
            6.882765678240627,
            7.041535393447587,
            7.143869364271828,
            7.9028435145828055,
            8.089868591885656,
            8.899953068829452,
            8.988176994563677,
            9.211793539702088,
            9.9530137947683,
            10.317672049979977,
            10.471467404343711,
            10.580710576484263,
            10.670486499726564,
            10.891163485463323,
            10.997594415990513,
            12.109325667616853,
            12.24779753422116,
            12.5338637018041,
            12.726180176663037,
            13.834083300633713,
            13.870284510080781,
            14.151288786468623,
            14.293889077828107,
            14.973886094828973,
            14.974549894137137,
            15.479506956919868,
            15.53423576670759,
            16.027866432835808,
            16.342230577030914,
            18.113136684409845,
            18.276358075886765,
            18.880546521807148,
            18.971046696167974,
            19.336125653204842,
            19.41185894381383,
            19.569927922196445,
            19.671210961737525,
            20.559738651435442,
            20.9141461673039,
            20.927661132755336,
            21.24060619115226,
            21.340241629395894,
            21.45763244373988,
            22.691818900459502,
            22.75555729471241,
            23.13602416669649,
            24.16282752531405,
            24.401492764804104,
            24.565516033695523,
            24.9090865444365,
            25.16452390927068,
            27.965368212491864,
            28.258561148518655,
            28.616692866186693,
            28.661491959517765,
            29.14315947171023,
            30.035601356480424,
            30.78119016147306,
            31.674942552015217,
            31.700273194480733,
            31.97146919423807,
            34.888413704828764,
            35.081024246653584,
            37.60871804846396,
            37.80388964621894,
            38.45608672578006,
            38.6189459306,
            39.671324054073985,
            39.95084404343964,
            40.70608658119607,
            41.11920861890987
        ]
    },
    "born_effective_charge": {
        "avg_abs_trace": 1.64813068627451,
        "tensors": [
            [
                [
                    1.12623,
                    0.03668,
                    -0.03327
                ],
                [
                    0.01423,
                    1.0172,
                    0.02266
                ],
                [
                    -0.04247,
                    0.09323,
                    1.11782
                ]
            ],
            [
                [
                    1.12623,
                    -0.03668,
                    -0.03327
                ],
                [
                    -0.01422,
                    1.01721,
                    -0.02267
                ],
                [
                    -0.04247,
                    -0.09323,
                    1.11782
                ]
            ],
            [
                [
                    1.23972,
                    0.0,
                    -0.06295
                ],
                [
                    -0.0,
                    0.98414,
                    -0.0
                ],
                [
                    -0.05149,
                    0.0,
                    1.0305
                ]
            ],
            [
                [
                    1.23971,
                    0.0,
                    -0.06294
                ],
                [
                    0.0,
                    0.98414,
                    0.0
                ],
                [
                    -0.05147,
                    0.0,
                    1.0305
                ]
            ],
            [
                [
                    1.12622,
                    -0.03667,
                    -0.03327
                ],
                [
                    -0.01423,
                    1.0172,
                    -0.02266
                ],
                [
                    -0.04246,
                    -0.09323,
                    1.11781
                ]
            ],
            [
                [
                    1.12622,
                    0.03667,
                    -0.03327
                ],
                [
                    0.01422,
                    1.01721,
                    0.02267
                ],
                [
                    -0.04246,
                    0.09323,
                    1.11781
                ]
            ],
            [
                [
                    2.16982,
                    0.0,
                    -0.14917
                ],
                [
                    3e-05,
                    2.83499,
                    -2e-05
                ],
                [
                    0.02062,
                    0.0,
                    2.84156
                ]
            ],
            [
                [
                    2.1698,
                    0.0,
                    -0.14911
                ],
                [
                    -3e-05,
                    2.83499,
                    2e-05
                ],
                [
                    0.02092,
                    0.0,
                    2.84125
                ]
            ],
            [
                [
                    2.20437,
                    0.0,
                    -0.30454
                ],
                [
                    2e-05,
                    2.33547,
                    -1e-05
                ],
                [
                    -0.84451,
                    0.0,
                    2.1153
                ]
            ],
            [
                [
                    1.6724,
                    0.0,
                    0.3289
                ],
                [
                    -2e-05,
                    2.33082,
                    -1e-05
                ],
                [
                    0.07943,
                    0.0,
                    2.56698
                ]
            ],
            [
                [
                    1.29006,
                    -0.5244,
                    -0.42544
                ],
                [
                    -0.96904,
                    2.36868,
                    -0.59297
                ],
                [
                    -0.3762,
                    -0.4817,
                    1.93062
                ]
            ],
            [
                [
                    1.29006,
                    0.5244,
                    -0.42544
                ],
                [
                    0.96906,
                    2.36872,
                    0.593
                ],
                [
                    -0.3762,
                    0.4817,
                    1.93062
                ]
            ],
            [
                [
                    1.29018,
                    0.52433,
                    -0.4257
                ],
                [
                    0.96904,
                    2.36868,
                    0.59297
                ],
                [
                    -0.37626,
                    0.48172,
                    1.93071
                ]
            ],
            [
                [
                    1.29018,
                    -0.52433,
                    -0.4257
                ],
                [
                    -0.96906,
                    2.36872,
                    -0.593
                ],
                [
                    -0.37626,
                    -0.48172,
                    1.93071
                ]
            ],
            [
                [
                    1.67207,
                    0.0,
                    0.32895
                ],
                [
                    2e-05,
                    2.33082,
                    1e-05
                ],
                [
                    0.07921,
                    0.0,
                    2.56691
                ]
            ],
            [
                [
                    2.20454,
                    0.0,
                    -0.30439
                ],
                [
                    -2e-05,
                    2.33547,
                    1e-05
                ],
                [
                    -0.84458,
                    0.0,
                    2.11546
                ]
            ],
            [
                [
                    -1.39129,
                    0.53877,
                    0.31454
                ],
                [
                    0.80177,
                    -1.80685,
                    -0.01056
                ],
                [
                    0.42329,
                    -0.02663,
                    -1.27998
                ]
            ],
            [
                [
                    -1.39129,
                    -0.53877,
                    0.31454
                ],
                [
                    -0.80176,
                    -1.80686,
                    0.01049
                ],
                [
                    0.42329,
                    0.02663,
                    -1.27998
                ]
            ],
            [
                [
                    -1.3787,
                    0.0,
                    0.2367
                ],
                [
                    4e-05,
                    -1.12681,
                    1e-05
                ],
                [
                    0.39586,
                    0.0,
                    -2.06944
                ]
            ],
            [
                [
                    -1.30426,
                    0.0,
                    -0.33397
                ],
                [
                    2e-05,
                    -1.15416,
                    -1e-05
                ],
                [
                    -0.27655,
                    0.0,
                    -2.31092
                ]
            ],
            [
                [
                    -1.09234,
                    0.23486,
                    0.08411
                ],
                [
                    0.33094,
                    -1.7765,
                    0.70229
                ],
                [
                    0.06366,
                    0.51833,
                    -1.72249
                ]
            ],
            [
                [
                    -1.09234,
                    -0.23486,
                    0.08411
                ],
                [
                    -0.33096,
                    -1.77653,
                    -0.70222
                ],
                [
                    0.06366,
                    -0.51833,
                    -1.72249
                ]
            ],
            [
                [
                    -1.76711,
                    0.0,
                    0.39354
                ],
                [
                    -2e-05,
                    -1.16804,
                    3e-05
                ],
                [
                    0.68709,
                    0.0,
                    -1.91254
                ]
            ],
            [
                [
                    -1.35056,
                    -0.04863,
                    0.00603
                ],
                [
                    -0.24333,
                    -2.3207,
                    -0.46935
                ],
                [
                    -0.07365,
                    -0.31426,
                    -1.17697
                ]
            ],
            [
                [
                    -1.35056,
                    0.04863,
                    0.00603
                ],
                [
                    0.24332,
                    -2.32078,
                    0.46939
                ],
                [
                    -0.07365,
                    0.31426,
                    -1.17697
                ]
            ],
            [
                [
                    -1.3512,
                    -0.04899,
                    0.00568
                ],
                [
                    -0.24332,
                    -2.32078,
                    -0.46939
                ],
                [
                    -0.07418,
                    -0.31428,
                    -1.17709
                ]
            ],
            [
                [
                    -1.3512,
                    0.04899,
                    0.00568
                ],
                [
                    0.24333,
                    -2.3207,
                    0.46935
                ],
                [
                    -0.07418,
                    0.31428,
                    -1.17709
                ]
            ],
            [
                [
                    -1.76671,
                    0.0,
                    0.39391
                ],
                [
                    2e-05,
                    -1.16804,
                    -3e-05
                ],
                [
                    0.68765,
                    0.0,
                    -1.91256
                ]
            ],
            [
                [
                    -1.0927,
                    -0.23442,
                    0.08468
                ],
                [
                    -0.33094,
                    -1.7765,
                    -0.70229
                ],
                [
                    0.06371,
                    -0.51832,
                    -1.72225
                ]
            ],
            [
                [
                    -1.0927,
                    0.23442,
                    0.08468
                ],
                [
                    0.33096,
                    -1.77653,
                    0.70222
                ],
                [
                    0.06371,
                    0.51832,
                    -1.72225
                ]
            ],
            [
                [
                    -1.30425,
                    0.0,
                    -0.33393
                ],
                [
                    -2e-05,
                    -1.15416,
                    1e-05
                ],
                [
                    -0.27633,
                    0.0,
                    -2.3106
                ]
            ],
            [
                [
                    -1.37797,
                    0.0,
                    0.23702
                ],
                [
                    -4e-05,
                    -1.12681,
                    -1e-05
                ],
                [
                    0.39641,
                    0.0,
                    -2.0692
                ]
            ],
            [
                [
                    -1.39131,
                    -0.53898,
                    0.31364
                ],
                [
                    -0.80177,
                    -1.80685,
                    0.01056
                ],
                [
                    0.42342,
                    0.02699,
                    -1.2798
                ]
            ],
            [
                [
                    -1.39131,
                    0.53898,
                    0.31364
                ],
                [
                    0.80176,
                    -1.80686,
                    -0.01049
                ],
                [
                    0.42342,
                    -0.02699,
                    -1.2798
                ]
            ]
        ]
    },
    "band_gap": 4.5032,
    "is_direct": true,
    "formula": "Na3GaB4O9"
}