{
    "mp_id": "mp-772185",
    "nelements": 3,
    "nsites": 30,
    "elements": [
        "Hf",
        "Li",
        "O"
    ],
    "structure": {
        "@module": "pymatgen.core.structure",
        "@class": "Structure",
        "charge": null,
        "lattice": {
            "matrix": [
                [
                    5.21514581,
                    -2.99171118,
                    -0.00046079
                ],
                [
                    5.21514581,
                    2.99171118,
                    -0.00046079
                ],
                [
                    -1.79428255,
                    0.0,
                    10.02159614
                ]
            ],
            "a": 6.012327487456498,
            "b": 6.012327487456498,
            "c": 10.180954722544316,
            "alpha": 98.79773733831959,
            "beta": 98.79773733831959,
            "gamma": 59.68218291067293,
            "volume": 312.7131485076139
        },
        "sites": [
            {
                "species": [
                    {
                        "element": "Li",
                        "occu": 1
                    }
                ],
                "abc": [
                    0.07503976,
                    0.33897805,
                    0.89507256
                ],
                "xyz": [
                    0.5531501716950478,
                    0.7896271330230821,
                    8.969864937049248
                ],
                "label": "Li",
                "properties": {}
            },
            {
                "species": [
                    {
                        "element": "Li",
                        "occu": 1
                    }
                ],
                "abc": [
                    0.33897805,
                    0.07503976,
                    0.39507256
                ],
                "xyz": [
                    1.4502914466950478,
                    -0.7896271330230821,
                    3.9590668670492484
                ],
                "label": "Li",
                "properties": {}
            },
            {
                "species": [
                    {
                        "element": "Li",
                        "occu": 1
                    }
                ],
                "abc": [
                    0.08280413,
                    0.79380036,
                    0.9156226
                ],
                "xyz": [
                    2.9287345794850577,
                    2.1270953702288513,
                    9.175595983273816
                ],
                "label": "Li",
                "properties": {}
            },
            {
                "species": [
                    {
                        "element": "Li",
                        "occu": 1
                    }
                ],
                "abc": [
                    0.53219913,
                    0.33772992,
                    0.89717295
                ],
                "xyz": [
                    2.9270250715877584,
                    -0.5817957097227677,
                    8.990704118025462
                ],
                "label": "Li",
                "properties": {}
            },
            {
                "species": [
                    {
                        "element": "Li",
                        "occu": 1
                    }
                ],
                "abc": [
                    0.79380036,
                    0.08280413,
                    0.4156226
                ],
                "xyz": [
                    3.8258758544850573,
                    -2.1270953702288513,
                    4.164797913273817
                ],
                "label": "Li",
                "properties": {}
            },
            {
                "species": [
                    {
                        "element": "Li",
                        "occu": 1
                    }
                ],
                "abc": [
                    0.33772992,
                    0.53219913,
                    0.39717295
                ],
                "xyz": [
                    3.8241663465877584,
                    0.5817957097227677,
                    3.9799060480254633
                ],
                "label": "Li",
                "properties": {}
            },
            {
                "species": [
                    {
                        "element": "Li",
                        "occu": 1
                    }
                ],
                "abc": [
                    0.66227008,
                    0.46780087,
                    0.60282705
                ],
                "xyz": [
                    4.8118427234122425,
                    -0.5817957097227677,
                    6.0407685119745365
                ],
                "label": "Li",
                "properties": {}
            },
            {
                "species": [
                    {
                        "element": "Li",
                        "occu": 1
                    }
                ],
                "abc": [
                    0.20619964,
                    0.91719587,
                    0.5843774
                ],
                "xyz": [
                    4.810133215514943,
                    2.1270953702288513,
                    5.855876646726183
                ],
                "label": "Li",
                "properties": {}
            },
            {
                "species": [
                    {
                        "element": "Li",
                        "occu": 1
                    }
                ],
                "abc": [
                    0.46780087,
                    0.66227008,
                    0.10282705
                ],
                "xyz": [
                    5.708983998412242,
                    0.5817957097227677,
                    1.0299704419745364
                ],
                "label": "Li",
                "properties": {}
            },
            {
                "species": [
                    {
                        "element": "Li",
                        "occu": 1
                    }
                ],
                "abc": [
                    0.91719587,
                    0.20619964,
                    0.0843774
                ],
                "xyz": [
                    5.707274490514943,
                    -2.1270953702288513,
                    0.8450785767261831
                ],
                "label": "Li",
                "properties": {}
            },
            {
                "species": [
                    {
                        "element": "Li",
                        "occu": 1
                    }
                ],
                "abc": [
                    0.66102195,
                    0.92496024,
                    0.60492744
                ],
                "xyz": [
                    7.185717623304951,
                    0.7896271330230822,
                    6.0616076929507505
                ],
                "label": "Li",
                "properties": {}
            },
            {
                "species": [
                    {
                        "element": "Li",
                        "occu": 1
                    }
                ],
                "abc": [
                    0.92496024,
                    0.66102195,
                    0.10492744
                ],
                "xyz": [
                    8.082858898304952,
                    -0.7896271330230822,
                    1.0508096229507515
                ],
                "label": "Li",
                "properties": {}
            },
            {
                "species": [
                    {
                        "element": "Hf",
                        "occu": 1
                    }
                ],
                "abc": [
                    0.19195542,
                    0.44009089,
                    0.63484638
                ],
                "xyz": [
                    2.157119883757792,
                    0.7423496597535546,
                    6.361882790681789
                ],
                "label": "Hf",
                "properties": {}
            },
            {
                "species": [
                    {
                        "element": "Hf",
                        "occu": 1
                    }
                ],
                "abc": [
                    0.44009089,
                    0.19195542,
                    0.13484638
                ],
                "xyz": [
                    3.054261158757792,
                    -0.7423496597535546,
                    1.3510847206817882
                ],
                "label": "Hf",
                "properties": {}
            },
            {
                "species": [
                    {
                        "element": "Hf",
                        "occu": 1
                    }
                ],
                "abc": [
                    0.55990911,
                    0.80804458,
                    0.86515362
                ],
                "xyz": [
                    5.581747911242207,
                    0.7423496597535546,
                    8.669589839318212
                ],
                "label": "Hf",
                "properties": {}
            },
            {
                "species": [
                    {
                        "element": "Hf",
                        "occu": 1
                    }
                ],
                "abc": [
                    0.80804458,
                    0.55990911,
                    0.36515362
                ],
                "xyz": [
                    6.478889186242207,
                    -0.7423496597535546,
                    3.6587917693182117
                ],
                "label": "Hf",
                "properties": {}
            },
            {
                "species": [
                    {
                        "element": "O",
                        "occu": 1
                    }
                ],
                "abc": [
                    0.36480217,
                    0.13673442,
                    0.75515666
                ],
                "xyz": [
                    1.2606220283459049,
                    -0.682312837472445,
                    7.567643965905987
                ],
                "label": "O",
                "properties": {}
            },
            {
                "species": [
                    {
                        "element": "O",
                        "occu": 1
                    }
                ],
                "abc": [
                    0.73524057,
                    0.99963806,
                    0.99806963
                ],
                "xyz": [
                    7.256826097309084,
                    0.7910009267969382,
                    10.001451336735311
                ],
                "label": "O",
                "properties": {}
            },
            {
                "species": [
                    {
                        "element": "O",
                        "occu": 1
                    }
                ],
                "abc": [
                    0.13673442,
                    0.36480217,
                    0.25515666
                ],
                "xyz": [
                    2.157763303345905,
                    0.682312837472445,
                    2.5568458959059863
                ],
                "label": "O",
                "properties": {}
            },
            {
                "species": [
                    {
                        "element": "O",
                        "occu": 1
                    }
                ],
                "abc": [
                    0.99963806,
                    0.73524057,
                    0.49806963
                ],
                "xyz": [
                    8.153967372309083,
                    -0.7910009267969382,
                    4.99065326673531
                ],
                "label": "O",
                "properties": {}
            },
            {
                "species": [
                    {
                        "element": "O",
                        "occu": 1
                    }
                ],
                "abc": [
                    0.50161063,
                    0.25497905,
                    0.52080879
                ],
                "xyz": [
                    3.011247375757626,
                    -0.7378504552270643,
                    5.218986730583423
                ],
                "label": "O",
                "properties": {}
            },
            {
                "species": [
                    {
                        "element": "O",
                        "occu": 1
                    }
                ],
                "abc": [
                    0.35179645,
                    0.64820355,
                    0.75
                ],
                "xyz": [
                    3.8694338975000004,
                    0.8867644349013779,
                    7.515736315
                ],
                "label": "O",
                "properties": {}
            },
            {
                "species": [
                    {
                        "element": "O",
                        "occu": 1
                    }
                ],
                "abc": [
                    0.25497905,
                    0.50161063,
                    0.02080879
                ],
                "xyz": [
                    3.908388650757626,
                    0.7378504552270643,
                    0.2081886605834234
                ],
                "label": "O",
                "properties": {}
            },
            {
                "species": [
                    {
                        "element": "O",
                        "occu": 1
                    }
                ],
                "abc": [
                    0.74502095,
                    0.49838937,
                    0.97919121
                ],
                "xyz": [
                    4.727620419242374,
                    -0.7378504552270644,
                    9.812485899416577
                ],
                "label": "O",
                "properties": {}
            },
            {
                "species": [
                    {
                        "element": "O",
                        "occu": 1
                    }
                ],
                "abc": [
                    0.64820355,
                    0.35179645,
                    0.25
                ],
                "xyz": [
                    4.7665751725000005,
                    -0.8867644349013779,
                    2.504938245
                ],
                "label": "O",
                "properties": {}
            },
            {
                "species": [
                    {
                        "element": "O",
                        "occu": 1
                    }
                ],
                "abc": [
                    0.49838937,
                    0.74502095,
                    0.47919121
                ],
                "xyz": [
                    5.624761694242374,
                    0.7378504552270644,
                    4.801687829416576
                ],
                "label": "O",
                "properties": {}
            },
            {
                "species": [
                    {
                        "element": "O",
                        "occu": 1
                    }
                ],
                "abc": [
                    0.00036194,
                    0.26475943,
                    0.50193037
                ],
                "xyz": [
                    0.48204169769091654,
                    0.7910009267969382,
                    5.0300212932646895
                ],
                "label": "O",
                "properties": {}
            },
            {
                "species": [
                    {
                        "element": "O",
                        "occu": 1
                    }
                ],
                "abc": [
                    0.86326558,
                    0.63519783,
                    0.74484334
                ],
                "xyz": [
                    6.478245766654095,
                    -0.682312837472445,
                    7.463828664094013
                ],
                "label": "O",
                "properties": {}
            },
            {
                "species": [
                    {
                        "element": "O",
                        "occu": 1
                    }
                ],
                "abc": [
                    0.26475943,
                    0.00036194,
                    0.00193037
                ],
                "xyz": [
                    1.3791829726909164,
                    -0.7910009267969382,
                    0.0192232232646895
                ],
                "label": "O",
                "properties": {}
            },
            {
                "species": [
                    {
                        "element": "O",
                        "occu": 1
                    }
                ],
                "abc": [
                    0.63519783,
                    0.86326558,
                    0.24484334
                ],
                "xyz": [
                    7.375387041654095,
                    0.682312837472445,
                    2.4530305940940136
                ],
                "label": "O",
                "properties": {}
            }
        ]
    },
    "spacegroup": {
        "source": "spglib",
        "symbol": "C2/c",
        "number": 15,
        "point_group": "2/m",
        "crystal_system": "monoclinic",
        "hall": "-C 2yc"
    },
    "dielectric": {
        "epsilon_ionic": [
            [
                10.67042933,
                -0.0,
                0.19936903
            ],
            [
                -0.0,
                10.12690293,
                0.0
            ],
            [
                0.19936903,
                0.0,
                13.7240388
            ]
        ],
        "epsilon_ionic_avg": 11.507123686666667,
        "epsilon_ionic_eig": [
            10.657467618768116,
            13.737000511231884,
            10.12690293
        ],
        "epsilon_electronic": [
            [
                3.320906,
                0.0,
                0.01272335
            ],
            [
                0.0,
                3.4011269,
                0.0
            ],
            [
                0.0127212,
                0.0,
                3.49916679
            ]
        ],
        "epsilon_electronic_avg": 3.407066563333333,
        "epsilon_electronic_eig": [
            3.3200026036054573,
            3.5000701863945425,
            3.4011269
        ]
    },
    "phonon": {
        "lowest_freq": -0.06905513148653604,
        "frequency": [
            -0.06905513148653604,
            -0.02814852532163872,
            -0.022195158842034785,
            2.238946109698757,
            2.742432278166846,
            2.9839237906003917,
            3.2533019969875965,
            3.5721002877301173,
            3.9746262728760655,
            4.012102524954769,
            4.284065862852887,
            4.533905091540659,
            4.567142042905958,
            4.730253629369745,
            5.124967589618727,
            5.193594972024087,
            5.216469040249381,
            5.782062688123162,
            5.898952086769836,
            5.91815860936949,
            6.638927767447907,
            6.640338943266957,
            6.714748423510898,
            6.879665754571651,
            6.956791601311057,
            7.44824960963129,
            7.846715242458188,
            7.905824102477948,
            8.181342136076399,
            8.632803299593451,
            8.720012412149597,
            8.8707716178757,
            8.930213921710191,
            8.931607270905367,
            9.207031427084996,
            9.686222408045772,
            9.755594458657306,
            9.891768160752562,
            9.968577085861918,
            10.008303459424324,
            10.128821927576697,
            10.394111197609915,
            10.461740368654715,
            10.556771113385942,
            10.754662214418678,
            10.75467851962268,
            10.824583797671545,
            11.178136032359587,
            11.195618250738459,
            11.247436907973324,
            11.452450039976227,
            11.477240126485865,
            12.298317769211748,
            12.31184530133198,
            12.592190572758584,
            12.659657918379976,
            12.705672011146374,
            12.710542740756507,
            12.71980812655996,
            12.979163419520226,
            13.21079290586022,
            13.34479267926767,
            13.668093820195281,
            13.86576728399888,
            13.923158944134276,
            13.9801743096688,
            14.09004291597177,
            14.114232331090315,
            14.157113737478515,
            14.564060505538183,
            15.141423958982342,
            15.146608023398423,
            15.155981975603712,
            15.407602242693478,
            15.48077823638384,
            15.560834921250908,
            15.839174619764135,
            16.05007908865195,
            16.099842877131145,
            16.741313917033104,
            17.634230012286572,
            18.313487081508324,
            18.45084934815105,
            18.470432651916205,
            18.78553226005747,
            18.941283800350305,
            19.094203776568,
            20.986903488668943,
            23.1849103824804,
            24.430257974285155
        ]
    },
    "born_effective_charge": {
        "avg_abs_trace": 2.082097111111111,
        "tensors": [
            [
                [
                    0.75348,
                    -0.06224,
                    -0.0671
                ],
                [
                    -0.1093,
                    1.14409,
                    -0.06554
                ],
                [
                    -0.01923,
                    -0.05249,
                    0.96901
                ]
            ],
            [
                [
                    0.75348,
                    0.06224,
                    -0.0671
                ],
                [
                    0.10928,
                    1.14409,
                    0.06553
                ],
                [
                    -0.01923,
                    0.05249,
                    0.96901
                ]
            ],
            [
                [
                    1.21394,
                    -0.10796,
                    0.01955
                ],
                [
                    -0.10713,
                    1.09822,
                    0.02368
                ],
                [
                    0.01392,
                    0.03488,
                    0.97676
                ]
            ],
            [
                [
                    1.10323,
                    0.10924,
                    -0.00985
                ],
                [
                    0.15291,
                    0.76869,
                    -0.08928
                ],
                [
                    -0.03264,
                    -0.04484,
                    0.96964
                ]
            ],
            [
                [
                    1.21394,
                    0.10796,
                    0.01955
                ],
                [
                    0.10712,
                    1.09823,
                    -0.02368
                ],
                [
                    0.01392,
                    -0.03488,
                    0.97676
                ]
            ],
            [
                [
                    1.10323,
                    -0.10924,
                    -0.00985
                ],
                [
                    -0.15292,
                    0.76868,
                    0.08926
                ],
                [
                    -0.03264,
                    0.04484,
                    0.96964
                ]
            ],
            [
                [
                    1.10324,
                    -0.10924,
                    -0.00985
                ],
                [
                    -0.15291,
                    0.76869,
                    0.08928
                ],
                [
                    -0.03264,
                    0.04483,
                    0.96964
                ]
            ],
            [
                [
                    1.21394,
                    0.10796,
                    0.01955
                ],
                [
                    0.10713,
                    1.09822,
                    -0.02368
                ],
                [
                    0.01392,
                    -0.03487,
                    0.97676
                ]
            ],
            [
                [
                    1.10324,
                    0.10924,
                    -0.00985
                ],
                [
                    0.15292,
                    0.76868,
                    -0.08926
                ],
                [
                    -0.03264,
                    -0.04483,
                    0.96964
                ]
            ],
            [
                [
                    1.21394,
                    -0.10796,
                    0.01955
                ],
                [
                    -0.10712,
                    1.09823,
                    0.02368
                ],
                [
                    0.01392,
                    0.03487,
                    0.97676
                ]
            ],
            [
                [
                    0.75348,
                    0.06224,
                    -0.0671
                ],
                [
                    0.1093,
                    1.14409,
                    0.06554
                ],
                [
                    -0.01922,
                    0.05249,
                    0.96901
                ]
            ],
            [
                [
                    0.75348,
                    -0.06224,
                    -0.0671
                ],
                [
                    -0.10928,
                    1.14409,
                    -0.06553
                ],
                [
                    -0.01922,
                    -0.05249,
                    0.96901
                ]
            ],
            [
                [
                    4.48909,
                    -0.30834,
                    0.06174
                ],
                [
                    -0.33797,
                    4.78357,
                    -0.16176
                ],
                [
                    0.05912,
                    -0.02864,
                    5.15389
                ]
            ],
            [
                [
                    4.48909,
                    0.30834,
                    0.06174
                ],
                [
                    0.33808,
                    4.78354,
                    0.16171
                ],
                [
                    0.05912,
                    0.02864,
                    5.15389
                ]
            ],
            [
                [
                    4.4891,
                    0.30832,
                    0.06173
                ],
                [
                    0.33797,
                    4.78357,
                    0.16176
                ],
                [
                    0.0591,
                    0.02863,
                    5.15387
                ]
            ],
            [
                [
                    4.4891,
                    -0.30832,
                    0.06173
                ],
                [
                    -0.33808,
                    4.78354,
                    -0.16171
                ],
                [
                    0.0591,
                    -0.02863,
                    5.15387
                ]
            ],
            [
                [
                    -1.77677,
                    -0.86611,
                    0.59552
                ],
                [
                    -0.88287,
                    -2.82313,
                    0.95521
                ],
                [
                    0.55579,
                    0.91988,
                    -2.47191
                ]
            ],
            [
                [
                    -2.18921,
                    0.04706,
                    -0.29856
                ],
                [
                    0.05248,
                    -2.09626,
                    -0.49569
                ],
                [
                    -0.29929,
                    -0.50093,
                    -2.36892
                ]
            ],
            [
                [
                    -1.77677,
                    0.86611,
                    0.59552
                ],
                [
                    0.88286,
                    -2.82312,
                    -0.95517
                ],
                [
                    0.55579,
                    -0.91988,
                    -2.47191
                ]
            ],
            [
                [
                    -2.18921,
                    -0.04706,
                    -0.29856
                ],
                [
                    -0.05258,
                    -2.09615,
                    0.49569
                ],
                [
                    -0.29929,
                    0.50093,
                    -2.36892
                ]
            ],
            [
                [
                    -1.89245,
                    0.30055,
                    0.29293
                ],
                [
                    0.29939,
                    -2.22893,
                    -0.50795
                ],
                [
                    0.30079,
                    -0.52107,
                    -1.98555
                ]
            ],
            [
                [
                    -3.40263,
                    -1e-05,
                    -1.18844
                ],
                [
                    -0.0,
                    -1.29266,
                    0.0
                ],
                [
                    -1.15693,
                    -1e-05,
                    -2.48583
                ]
            ],
            [
                [
                    -1.89245,
                    -0.30055,
                    0.29293
                ],
                [
                    -0.29955,
                    -2.22885,
                    0.50795
                ],
                [
                    0.30079,
                    0.52107,
                    -1.98555
                ]
            ],
            [
                [
                    -1.89245,
                    -0.30053,
                    0.29292
                ],
                [
                    -0.29939,
                    -2.22893,
                    0.50795
                ],
                [
                    0.3008,
                    0.52102,
                    -1.98554
                ]
            ],
            [
                [
                    -3.40263,
                    1e-05,
                    -1.18844
                ],
                [
                    0.0,
                    -1.29266,
                    0.0
                ],
                [
                    -1.15693,
                    1e-05,
                    -2.48583
                ]
            ],
            [
                [
                    -1.89245,
                    0.30053,
                    0.29292
                ],
                [
                    0.29955,
                    -2.22885,
                    -0.50795
                ],
                [
                    0.3008,
                    -0.52102,
                    -1.98554
                ]
            ],
            [
                [
                    -2.18919,
                    -0.04705,
                    -0.29859
                ],
                [
                    -0.05248,
                    -2.09626,
                    0.49569
                ],
                [
                    -0.2993,
                    0.5009,
                    -2.36888
                ]
            ],
            [
                [
                    -1.7768,
                    0.86607,
                    0.59554
                ],
                [
                    0.88287,
                    -2.82313,
                    -0.95521
                ],
                [
                    0.55582,
                    -0.91983,
                    -2.47195
                ]
            ],
            [
                [
                    -2.18919,
                    0.04705,
                    -0.29859
                ],
                [
                    0.05258,
                    -2.09615,
                    -0.49569
                ],
                [
                    -0.2993,
                    -0.5009,
                    -2.36888
                ]
            ],
            [
                [
                    -1.7768,
                    -0.86607,
                    0.59554
                ],
                [
                    -0.88286,
                    -2.82312,
                    0.95517
                ],
                [
                    0.55582,
                    0.91983,
                    -2.47195
                ]
            ]
        ]
    },
    "band_gap": 4.2802,
    "is_direct": true,
    "formula": "Li6Hf2O7"
}