{
    "mp_id": "mp-756347",
    "nelements": 3,
    "nsites": 22,
    "elements": [
        "O",
        "Pt",
        "Y"
    ],
    "structure": {
        "@module": "pymatgen.core.structure",
        "@class": "Structure",
        "charge": null,
        "lattice": {
            "matrix": [
                [
                    0.0,
                    5.05782444,
                    5.05782444
                ],
                [
                    5.05782444,
                    0.0,
                    5.05782444
                ],
                [
                    5.05782444,
                    5.05782444,
                    0.0
                ]
            ],
            "a": 7.152843919150104,
            "b": 7.152843919150104,
            "c": 7.152843919150104,
            "alpha": 59.99999999999999,
            "beta": 59.99999999999999,
            "gamma": 59.99999999999999,
            "volume": 258.7743626670514
        },
        "sites": [
            {
                "species": [
                    {
                        "element": "Y",
                        "occu": 1
                    }
                ],
                "abc": [
                    0.625,
                    0.125,
                    0.625
                ],
                "xyz": [
                    3.7933683300000003,
                    6.32228055,
                    3.7933683300000003
                ],
                "label": "Y",
                "properties": {}
            },
            {
                "species": [
                    {
                        "element": "Y",
                        "occu": 1
                    }
                ],
                "abc": [
                    0.625,
                    0.625,
                    0.125
                ],
                "xyz": [
                    3.7933683300000003,
                    3.7933683300000003,
                    6.32228055
                ],
                "label": "Y",
                "properties": {}
            },
            {
                "species": [
                    {
                        "element": "Y",
                        "occu": 1
                    }
                ],
                "abc": [
                    0.125,
                    0.625,
                    0.625
                ],
                "xyz": [
                    6.32228055,
                    3.7933683300000003,
                    3.7933683300000003
                ],
                "label": "Y",
                "properties": {}
            },
            {
                "species": [
                    {
                        "element": "Y",
                        "occu": 1
                    }
                ],
                "abc": [
                    0.625,
                    0.625,
                    0.625
                ],
                "xyz": [
                    6.32228055,
                    6.32228055,
                    6.32228055
                ],
                "label": "Y",
                "properties": {}
            },
            {
                "species": [
                    {
                        "element": "Pt",
                        "occu": 1
                    }
                ],
                "abc": [
                    0.125,
                    0.125,
                    0.125
                ],
                "xyz": [
                    1.26445611,
                    1.26445611,
                    1.26445611
                ],
                "label": "Pt",
                "properties": {}
            },
            {
                "species": [
                    {
                        "element": "Pt",
                        "occu": 1
                    }
                ],
                "abc": [
                    0.625,
                    0.125,
                    0.125
                ],
                "xyz": [
                    1.26445611,
                    3.7933683300000003,
                    3.7933683300000003
                ],
                "label": "Pt",
                "properties": {}
            },
            {
                "species": [
                    {
                        "element": "Pt",
                        "occu": 1
                    }
                ],
                "abc": [
                    0.125,
                    0.125,
                    0.625
                ],
                "xyz": [
                    3.7933683300000003,
                    3.7933683300000003,
                    1.26445611
                ],
                "label": "Pt",
                "properties": {}
            },
            {
                "species": [
                    {
                        "element": "Pt",
                        "occu": 1
                    }
                ],
                "abc": [
                    0.125,
                    0.625,
                    0.125
                ],
                "xyz": [
                    3.7933683300000003,
                    1.26445611,
                    3.7933683300000003
                ],
                "label": "Pt",
                "properties": {}
            },
            {
                "species": [
                    {
                        "element": "O",
                        "occu": 1
                    }
                ],
                "abc": [
                    0.78540216,
                    0.21459784,
                    0.21459784
                ],
                "xyz": [
                    2.1707963998464193,
                    5.05782444,
                    5.05782444
                ],
                "label": "O",
                "properties": {}
            },
            {
                "species": [
                    {
                        "element": "O",
                        "occu": 1
                    }
                ],
                "abc": [
                    0.03540216,
                    0.46459784,
                    0.46459784
                ],
                "xyz": [
                    4.699708619846419,
                    2.52891222,
                    2.52891222
                ],
                "label": "O",
                "properties": {}
            },
            {
                "species": [
                    {
                        "element": "O",
                        "occu": 1
                    }
                ],
                "abc": [
                    0.21459784,
                    0.21459784,
                    0.78540216
                ],
                "xyz": [
                    5.05782444,
                    5.05782444,
                    2.1707963998464193
                ],
                "label": "O",
                "properties": {}
            },
            {
                "species": [
                    {
                        "element": "O",
                        "occu": 1
                    }
                ],
                "abc": [
                    0.78540216,
                    0.78540216,
                    0.21459784
                ],
                "xyz": [
                    5.05782444,
                    5.05782444,
                    7.944852480153581
                ],
                "label": "O",
                "properties": {}
            },
            {
                "species": [
                    {
                        "element": "O",
                        "occu": 1
                    }
                ],
                "abc": [
                    0.5,
                    0.5,
                    0.5
                ],
                "xyz": [
                    5.05782444,
                    5.05782444,
                    5.05782444
                ],
                "label": "O",
                "properties": {}
            },
            {
                "species": [
                    {
                        "element": "O",
                        "occu": 1
                    }
                ],
                "abc": [
                    0.78540216,
                    0.21459784,
                    0.78540216
                ],
                "xyz": [
                    5.05782444,
                    7.944852480153581,
                    5.05782444
                ],
                "label": "O",
                "properties": {}
            },
            {
                "species": [
                    {
                        "element": "O",
                        "occu": 1
                    }
                ],
                "abc": [
                    0.21459784,
                    0.78540216,
                    0.21459784
                ],
                "xyz": [
                    5.05782444,
                    2.1707963998464193,
                    5.05782444
                ],
                "label": "O",
                "properties": {}
            },
            {
                "species": [
                    {
                        "element": "O",
                        "occu": 1
                    }
                ],
                "abc": [
                    0.46459784,
                    0.03540216,
                    0.46459784
                ],
                "xyz": [
                    2.52891222,
                    4.699708619846419,
                    2.52891222
                ],
                "label": "O",
                "properties": {}
            },
            {
                "species": [
                    {
                        "element": "O",
                        "occu": 1
                    }
                ],
                "abc": [
                    0.03540216,
                    0.03540216,
                    0.46459784
                ],
                "xyz": [
                    2.52891222,
                    2.52891222,
                    0.35811582015358084
                ],
                "label": "O",
                "properties": {}
            },
            {
                "species": [
                    {
                        "element": "O",
                        "occu": 1
                    }
                ],
                "abc": [
                    0.46459784,
                    0.46459784,
                    0.03540216
                ],
                "xyz": [
                    2.52891222,
                    2.52891222,
                    4.699708619846419
                ],
                "label": "O",
                "properties": {}
            },
            {
                "species": [
                    {
                        "element": "O",
                        "occu": 1
                    }
                ],
                "abc": [
                    0.75,
                    0.75,
                    0.75
                ],
                "xyz": [
                    7.58673666,
                    7.58673666,
                    7.58673666
                ],
                "label": "O",
                "properties": {}
            },
            {
                "species": [
                    {
                        "element": "O",
                        "occu": 1
                    }
                ],
                "abc": [
                    0.03540216,
                    0.46459784,
                    0.03540216
                ],
                "xyz": [
                    2.52891222,
                    0.35811582015358084,
                    2.52891222
                ],
                "label": "O",
                "properties": {}
            },
            {
                "species": [
                    {
                        "element": "O",
                        "occu": 1
                    }
                ],
                "abc": [
                    0.21459784,
                    0.78540216,
                    0.78540216
                ],
                "xyz": [
                    7.944852480153581,
                    5.05782444,
                    5.05782444
                ],
                "label": "O",
                "properties": {}
            },
            {
                "species": [
                    {
                        "element": "O",
                        "occu": 1
                    }
                ],
                "abc": [
                    0.46459784,
                    0.03540216,
                    0.03540216
                ],
                "xyz": [
                    0.35811582015358084,
                    2.52891222,
                    2.52891222
                ],
                "label": "O",
                "properties": {}
            }
        ]
    },
    "spacegroup": {
        "source": "spglib",
        "symbol": "Fd-3m",
        "number": 227,
        "point_group": "m-3m",
        "crystal_system": "cubic",
        "hall": "F 4d 2 3 -1d"
    },
    "dielectric": {
        "epsilon_ionic": [
            [
                7.67700299,
                -0.0,
                -0.0
            ],
            [
                -0.0,
                7.67682631,
                1e-08
            ],
            [
                -0.0,
                1e-08,
                7.67594915
            ]
        ],
        "epsilon_ionic_avg": 7.676592816666667,
        "epsilon_ionic_eig": [
            7.675949149999886,
            7.676826310000114,
            7.67700299
        ],
        "epsilon_electronic": [
            [
                6.48612692,
                0.0,
                0.0
            ],
            [
                0.0,
                6.48612692,
                0.0
            ],
            [
                -0.0,
                0.0,
                6.48612692
            ]
        ],
        "epsilon_electronic_avg": 6.48612692,
        "epsilon_electronic_eig": [
            6.48612692,
            6.48612692,
            6.48612692
        ]
    },
    "phonon": {
        "lowest_freq": -0.020023560830337475,
        "frequency": [
            -0.020023560830337475,
            -0.020023560830337475,
            -0.020023560830337475,
            3.1398539675384716,
            3.1398539675384716,
            3.1398539675384716,
            3.8491914365424695,
            3.8491914365424695,
            3.895950396739699,
            3.895950396739699,
            3.895950396739699,
            5.240170499816965,
            5.240170499816965,
            5.240170499816965,
            5.373325389282137,
            5.373325389282137,
            5.373325389282137,
            6.721020934319466,
            6.721020934319466,
            6.7581121817861805,
            6.7581121817861805,
            6.7581121817861805,
            7.0261857776648,
            8.028340968836291,
            8.028340968836291,
            8.028340968836291,
            10.045764763297084,
            10.045764763297084,
            10.045764763297084,
            10.237510338577763,
            10.302092643894888,
            10.302092643894888,
            10.302092643894888,
            11.246371725474678,
            11.246371725474678,
            11.246371725474678,
            12.815580452604697,
            12.815580452604697,
            12.815580452604697,
            13.70402390472653,
            13.70402390472653,
            13.70402390472653,
            13.83305213800379,
            13.83305213800379,
            15.538728902234368,
            15.6739429718051,
            16.683773905157846,
            16.683773905157846,
            16.683773905157846,
            16.746446298157363,
            16.746446298157363,
            16.746446298157363,
            17.016922187040336,
            17.016922187040336,
            18.89665114916601,
            18.89665114916601,
            18.89665114916601,
            19.707974392506028,
            19.707974392506028,
            19.707974392506028,
            19.850103865396623,
            19.850103865396623,
            19.850103865396623,
            20.872329866589716,
            20.872329866589716,
            20.872329866589716
        ]
    },
    "born_effective_charge": {
        "avg_abs_trace": 2.363051212121212,
        "tensors": [
            [
                [
                    3.93492,
                    -0.00656,
                    0.00656
                ],
                [
                    -0.00657,
                    3.93488,
                    -0.00657
                ],
                [
                    0.00683,
                    -0.00683,
                    3.9347
                ]
            ],
            [
                [
                    3.93492,
                    0.00656,
                    -0.00656
                ],
                [
                    0.00657,
                    3.93488,
                    -0.00657
                ],
                [
                    -0.00683,
                    -0.00683,
                    3.9347
                ]
            ],
            [
                [
                    3.93492,
                    -0.00656,
                    -0.00656
                ],
                [
                    -0.00657,
                    3.93488,
                    0.00657
                ],
                [
                    -0.00683,
                    0.00683,
                    3.9347
                ]
            ],
            [
                [
                    3.93492,
                    0.00656,
                    0.00656
                ],
                [
                    0.00657,
                    3.93488,
                    0.00657
                ],
                [
                    0.00683,
                    0.00683,
                    3.9347
                ]
            ],
            [
                [
                    2.5634,
                    -0.8752,
                    -0.8752
                ],
                [
                    -0.87519,
                    2.56346,
                    -0.87519
                ],
                [
                    -0.87502,
                    -0.87502,
                    2.56382
                ]
            ],
            [
                [
                    2.5634,
                    0.8752,
                    0.8752
                ],
                [
                    0.87519,
                    2.56346,
                    -0.87519
                ],
                [
                    0.87502,
                    -0.87502,
                    2.56382
                ]
            ],
            [
                [
                    2.5634,
                    -0.8752,
                    0.8752
                ],
                [
                    -0.87519,
                    2.56346,
                    0.87519
                ],
                [
                    0.87502,
                    0.87502,
                    2.56382
                ]
            ],
            [
                [
                    2.5634,
                    0.8752,
                    -0.8752
                ],
                [
                    0.87519,
                    2.56346,
                    0.87519
                ],
                [
                    -0.87502,
                    0.87502,
                    2.56382
                ]
            ],
            [
                [
                    -1.26793,
                    0.0,
                    0.0
                ],
                [
                    7e-05,
                    -1.95363,
                    -0.80011
                ],
                [
                    0.00015,
                    -0.79982,
                    -1.95379
                ]
            ],
            [
                [
                    -1.26793,
                    -0.0,
                    -0.0
                ],
                [
                    7e-05,
                    -1.95363,
                    0.80011
                ],
                [
                    0.00015,
                    0.79982,
                    -1.95379
                ]
            ],
            [
                [
                    -1.95364,
                    -0.80012,
                    3e-05
                ],
                [
                    -0.80011,
                    -1.95363,
                    7e-05
                ],
                [
                    0.0,
                    0.0,
                    -1.26747
                ]
            ],
            [
                [
                    -1.95364,
                    0.80012,
                    -3e-05
                ],
                [
                    0.80011,
                    -1.95363,
                    -7e-05
                ],
                [
                    0.0,
                    0.0,
                    -1.26785
                ]
            ],
            [
                [
                    -2.64645,
                    0.0,
                    0.0
                ],
                [
                    0.0,
                    -2.64651,
                    -0.0
                ],
                [
                    0.0,
                    -0.0,
                    -2.64655
                ]
            ],
            [
                [
                    -1.95364,
                    -3e-05,
                    0.80012
                ],
                [
                    0.0,
                    -1.26787,
                    0.0
                ],
                [
                    0.79982,
                    -0.00015,
                    -1.95379
                ]
            ],
            [
                [
                    -1.95364,
                    3e-05,
                    -0.80012
                ],
                [
                    0.0,
                    -1.26778,
                    0.0
                ],
                [
                    -0.79982,
                    0.00015,
                    -1.95379
                ]
            ],
            [
                [
                    -1.95364,
                    3e-05,
                    0.80012
                ],
                [
                    -0.0,
                    -1.26778,
                    -0.0
                ],
                [
                    0.79982,
                    0.00015,
                    -1.95379
                ]
            ],
            [
                [
                    -1.95364,
                    -0.80012,
                    -3e-05
                ],
                [
                    -0.80011,
                    -1.95363,
                    -7e-05
                ],
                [
                    -0.0,
                    -0.0,
                    -1.26785
                ]
            ],
            [
                [
                    -1.95364,
                    0.80012,
                    3e-05
                ],
                [
                    0.80011,
                    -1.95363,
                    7e-05
                ],
                [
                    -0.0,
                    -0.0,
                    -1.26747
                ]
            ],
            [
                [
                    -2.64645,
                    0.0,
                    0.0
                ],
                [
                    0.0,
                    -2.64651,
                    -0.0
                ],
                [
                    0.0,
                    -0.0,
                    -2.64655
                ]
            ],
            [
                [
                    -1.95364,
                    -3e-05,
                    -0.80012
                ],
                [
                    -0.0,
                    -1.26787,
                    -0.0
                ],
                [
                    -0.79982,
                    -0.00015,
                    -1.95379
                ]
            ],
            [
                [
                    -1.26768,
                    -0.0,
                    -0.0
                ],
                [
                    -7e-05,
                    -1.95363,
                    0.80011
                ],
                [
                    -0.00015,
                    0.79982,
                    -1.95379
                ]
            ],
            [
                [
                    -1.26768,
                    0.0,
                    0.0
                ],
                [
                    -7e-05,
                    -1.95363,
                    -0.80011
                ],
                [
                    -0.00015,
                    -0.79982,
                    -1.95379
                ]
            ]
        ]
    },
    "band_gap": 1.8963,
    "is_direct": false,
    "formula": "Y2Pt2O7"
}