{
    "mp_id": "mp-755802",
    "nelements": 3,
    "nsites": 20,
    "elements": [
        "K",
        "Mg",
        "O"
    ],
    "structure": {
        "@module": "pymatgen.core.structure",
        "@class": "Structure",
        "charge": null,
        "lattice": {
            "matrix": [
                [
                    10.43434852,
                    0.0,
                    0.0
                ],
                [
                    0.0,
                    6.01652428,
                    0.0
                ],
                [
                    0.0,
                    0.0,
                    5.47095908
                ]
            ],
            "a": 10.43434852,
            "b": 6.01652428,
            "c": 5.47095908,
            "alpha": 90.0,
            "beta": 90.0,
            "gamma": 90.0,
            "volume": 343.4586659691321
        },
        "sites": [
            {
                "species": [
                    {
                        "element": "K",
                        "occu": 1
                    }
                ],
                "abc": [
                    0.15455079,
                    0.37361369,
                    0.96829501
                ],
                "xyz": [
                    1.6126368069013308,
                    2.247855837225393,
                    5.297502377078191
                ],
                "label": "K",
                "properties": {}
            },
            {
                "species": [
                    {
                        "element": "K",
                        "occu": 1
                    }
                ],
                "abc": [
                    0.15455079,
                    0.62638631,
                    0.46829501
                ],
                "xyz": [
                    1.6126368069013308,
                    3.7686684427746067,
                    2.562022837078191
                ],
                "label": "K",
                "properties": {}
            },
            {
                "species": [
                    {
                        "element": "K",
                        "occu": 1
                    }
                ],
                "abc": [
                    0.34544921,
                    0.12638631,
                    0.46829501
                ],
                "xyz": [
                    3.6045374530986694,
                    0.7604063027746067,
                    2.562022837078191
                ],
                "label": "K",
                "properties": {}
            },
            {
                "species": [
                    {
                        "element": "K",
                        "occu": 1
                    }
                ],
                "abc": [
                    0.34544921,
                    0.87361369,
                    0.96829501
                ],
                "xyz": [
                    3.6045374530986694,
                    5.256117977225393,
                    5.297502377078191
                ],
                "label": "K",
                "properties": {}
            },
            {
                "species": [
                    {
                        "element": "K",
                        "occu": 1
                    }
                ],
                "abc": [
                    0.65455079,
                    0.12638631,
                    0.03170499
                ],
                "xyz": [
                    6.829811066901332,
                    0.7604063027746067,
                    0.1734567029218092
                ],
                "label": "K",
                "properties": {}
            },
            {
                "species": [
                    {
                        "element": "K",
                        "occu": 1
                    }
                ],
                "abc": [
                    0.65455079,
                    0.87361369,
                    0.53170499
                ],
                "xyz": [
                    6.829811066901332,
                    5.256117977225393,
                    2.9089362429218095
                ],
                "label": "K",
                "properties": {}
            },
            {
                "species": [
                    {
                        "element": "K",
                        "occu": 1
                    }
                ],
                "abc": [
                    0.84544921,
                    0.37361369,
                    0.53170499
                ],
                "xyz": [
                    8.821711713098669,
                    2.247855837225393,
                    2.9089362429218095
                ],
                "label": "K",
                "properties": {}
            },
            {
                "species": [
                    {
                        "element": "K",
                        "occu": 1
                    }
                ],
                "abc": [
                    0.84544921,
                    0.62638631,
                    0.03170499
                ],
                "xyz": [
                    8.821711713098669,
                    3.7686684427746067,
                    0.1734567029218092
                ],
                "label": "K",
                "properties": {}
            },
            {
                "species": [
                    {
                        "element": "Mg",
                        "occu": 1
                    }
                ],
                "abc": [
                    0.0,
                    0.00733733,
                    0.25
                ],
                "xyz": [
                    0.0,
                    0.0441452240953724,
                    1.36773977
                ],
                "label": "Mg",
                "properties": {}
            },
            {
                "species": [
                    {
                        "element": "Mg",
                        "occu": 1
                    }
                ],
                "abc": [
                    0.0,
                    0.99266267,
                    0.75
                ],
                "xyz": [
                    0.0,
                    5.972379055904627,
                    4.10321931
                ],
                "label": "Mg",
                "properties": {}
            },
            {
                "species": [
                    {
                        "element": "Mg",
                        "occu": 1
                    }
                ],
                "abc": [
                    0.5,
                    0.49266267,
                    0.75
                ],
                "xyz": [
                    5.21717426,
                    2.9641169159046274,
                    4.10321931
                ],
                "label": "Mg",
                "properties": {}
            },
            {
                "species": [
                    {
                        "element": "Mg",
                        "occu": 1
                    }
                ],
                "abc": [
                    0.5,
                    0.50733733,
                    0.25
                ],
                "xyz": [
                    5.21717426,
                    3.0524073640953726,
                    1.36773977
                ],
                "label": "Mg",
                "properties": {}
            },
            {
                "species": [
                    {
                        "element": "O",
                        "occu": 1
                    }
                ],
                "abc": [
                    0.09396247,
                    0.81993959,
                    0.00410249
                ],
                "xyz": [
                    0.9804371597800445,
                    4.933186451368245,
                    0.0224445549161092
                ],
                "label": "O",
                "properties": {}
            },
            {
                "species": [
                    {
                        "element": "O",
                        "occu": 1
                    }
                ],
                "abc": [
                    0.09396247,
                    0.18006041,
                    0.50410249
                ],
                "xyz": [
                    0.9804371597800445,
                    1.0833378286317548,
                    2.7579240949161092
                ],
                "label": "O",
                "properties": {}
            },
            {
                "species": [
                    {
                        "element": "O",
                        "occu": 1
                    }
                ],
                "abc": [
                    0.40603753,
                    0.31993959,
                    0.00410249
                ],
                "xyz": [
                    4.236737100219956,
                    1.924924311368245,
                    0.0224445549161092
                ],
                "label": "O",
                "properties": {}
            },
            {
                "species": [
                    {
                        "element": "O",
                        "occu": 1
                    }
                ],
                "abc": [
                    0.40603753,
                    0.68006041,
                    0.50410249
                ],
                "xyz": [
                    4.236737100219956,
                    4.091599968631754,
                    2.7579240949161092
                ],
                "label": "O",
                "properties": {}
            },
            {
                "species": [
                    {
                        "element": "O",
                        "occu": 1
                    }
                ],
                "abc": [
                    0.59396247,
                    0.31993959,
                    0.49589751
                ],
                "xyz": [
                    6.197611419780045,
                    1.924924311368245,
                    2.713034985083891
                ],
                "label": "O",
                "properties": {}
            },
            {
                "species": [
                    {
                        "element": "O",
                        "occu": 1
                    }
                ],
                "abc": [
                    0.59396247,
                    0.68006041,
                    0.99589751
                ],
                "xyz": [
                    6.197611419780045,
                    4.091599968631754,
                    5.448514525083891
                ],
                "label": "O",
                "properties": {}
            },
            {
                "species": [
                    {
                        "element": "O",
                        "occu": 1
                    }
                ],
                "abc": [
                    0.90603753,
                    0.18006041,
                    0.99589751
                ],
                "xyz": [
                    9.453911360219955,
                    1.0833378286317548,
                    5.448514525083891
                ],
                "label": "O",
                "properties": {}
            },
            {
                "species": [
                    {
                        "element": "O",
                        "occu": 1
                    }
                ],
                "abc": [
                    0.90603753,
                    0.81993959,
                    0.49589751
                ],
                "xyz": [
                    9.453911360219955,
                    4.933186451368245,
                    2.713034985083891
                ],
                "label": "O",
                "properties": {}
            }
        ]
    },
    "spacegroup": {
        "source": "spglib",
        "symbol": "Pbcn",
        "number": 60,
        "point_group": "mmm",
        "crystal_system": "orthorhombic",
        "hall": "-P 2n 2ab"
    },
    "dielectric": {
        "epsilon_ionic": [
            [
                3.8252419,
                3e-08,
                1e-08
            ],
            [
                3e-08,
                5.22909192,
                4e-08
            ],
            [
                1e-08,
                4e-08,
                18.14167488
            ]
        ],
        "epsilon_ionic_avg": 9.065336233333335,
        "epsilon_ionic_eig": [
            3.8252418999999995,
            5.229091920000004,
            18.14167488
        ],
        "epsilon_electronic": [
            [
                2.9360216,
                0.0,
                0.0
            ],
            [
                0.0,
                3.01105253,
                0.0
            ],
            [
                0.0,
                0.0,
                3.02274437
            ]
        ],
        "epsilon_electronic_avg": 2.9899395,
        "epsilon_electronic_eig": [
            2.9360216,
            3.01105253,
            3.02274437
        ]
    },
    "phonon": {
        "lowest_freq": -0.04148459858578554,
        "frequency": [
            -0.04148459858578554,
            -0.027808409540583175,
            -0.016097804264091863,
            0.9557079572158907,
            1.5658637513829905,
            1.8917148061747036,
            1.8990646056000204,
            2.0423048358042646,
            2.5069414416357882,
            2.608028177338444,
            3.1652935460270335,
            3.18623900899772,
            3.4670395216617185,
            3.600025997103818,
            3.7193836495803914,
            4.020173099836291,
            4.114041109681944,
            4.213593153330716,
            4.231228195448454,
            4.5865560179289675,
            4.630298999762506,
            4.687060574568459,
            4.876451117249677,
            4.994177890680014,
            5.398801715036189,
            5.412901336090557,
            5.495163982919644,
            5.6719016423487805,
            5.754865276812097,
            5.982242803677226,
            6.1256581475877026,
            6.297357357218522,
            7.256504705323877,
            7.559788575743085,
            7.719279497539543,
            7.859763626880384,
            7.9259448314643155,
            8.200646492636748,
            8.527979868184532,
            8.836525477404642,
            9.441398553962042,
            9.710617363884623,
            11.657293580593178,
            11.755176228251923,
            12.37036674768617,
            12.408368814176056,
            12.45715290724632,
            12.602432134418496,
            12.73722783004853,
            12.907447950106851,
            13.478878373021322,
            13.679981376656913,
            14.369913211507582,
            14.395315983402174,
            14.666662844019037,
            14.766642021926964,
            14.875708516377932,
            16.341282768381017,
            16.490917384972946,
            16.629389879373328
        ]
    },
    "born_effective_charge": {
        "avg_abs_trace": 1.5135163333333332,
        "tensors": [
            [
                [
                    1.18716,
                    0.02905,
                    0.01427
                ],
                [
                    0.04761,
                    1.12215,
                    0.01933
                ],
                [
                    0.0079,
                    0.02179,
                    1.04643
                ]
            ],
            [
                [
                    1.18716,
                    -0.02905,
                    0.01427
                ],
                [
                    -0.04779,
                    1.12224,
                    -0.01922
                ],
                [
                    0.0079,
                    -0.02179,
                    1.04643
                ]
            ],
            [
                [
                    1.18707,
                    0.02907,
                    -0.01423
                ],
                [
                    0.04779,
                    1.12224,
                    -0.01922
                ],
                [
                    -0.0079,
                    -0.02179,
                    1.04643
                ]
            ],
            [
                [
                    1.18707,
                    -0.02907,
                    -0.01423
                ],
                [
                    -0.04761,
                    1.12215,
                    0.01933
                ],
                [
                    -0.0079,
                    0.02179,
                    1.04643
                ]
            ],
            [
                [
                    1.18716,
                    -0.02905,
                    -0.01427
                ],
                [
                    -0.04779,
                    1.12224,
                    0.01922
                ],
                [
                    -0.00795,
                    0.02179,
                    1.0464
                ]
            ],
            [
                [
                    1.18716,
                    0.02905,
                    -0.01427
                ],
                [
                    0.04761,
                    1.12215,
                    -0.01933
                ],
                [
                    -0.00795,
                    -0.02179,
                    1.0464
                ]
            ],
            [
                [
                    1.18707,
                    -0.02907,
                    0.01423
                ],
                [
                    -0.04761,
                    1.12215,
                    -0.01933
                ],
                [
                    0.00795,
                    -0.02179,
                    1.0464
                ]
            ],
            [
                [
                    1.18707,
                    0.02907,
                    0.01423
                ],
                [
                    0.04779,
                    1.12224,
                    0.01922
                ],
                [
                    0.00795,
                    0.02179,
                    1.0464
                ]
            ],
            [
                [
                    1.3029,
                    0.0,
                    0.0088
                ],
                [
                    -0.0,
                    1.43639,
                    -0.0
                ],
                [
                    -0.01864,
                    1e-05,
                    1.90064
                ]
            ],
            [
                [
                    1.3029,
                    -0.0,
                    0.0088
                ],
                [
                    -0.0,
                    1.43638,
                    -0.0
                ],
                [
                    -0.01864,
                    -1e-05,
                    1.90064
                ]
            ],
            [
                [
                    1.3029,
                    -0.0,
                    -0.0088
                ],
                [
                    -0.0,
                    1.43638,
                    -0.0
                ],
                [
                    0.01864,
                    -1e-05,
                    1.90064
                ]
            ],
            [
                [
                    1.3029,
                    0.0,
                    -0.0088
                ],
                [
                    -0.0,
                    1.43639,
                    -0.0
                ],
                [
                    0.01864,
                    1e-05,
                    1.90064
                ]
            ],
            [
                [
                    -1.83857,
                    0.18361,
                    -0.00228
                ],
                [
                    0.20551,
                    -1.84034,
                    0.03308
                ],
                [
                    0.01504,
                    -0.01067,
                    -1.99674
                ]
            ],
            [
                [
                    -1.83857,
                    -0.18361,
                    -0.00228
                ],
                [
                    -0.20512,
                    -1.84044,
                    -0.03322
                ],
                [
                    0.01504,
                    0.01067,
                    -1.99674
                ]
            ],
            [
                [
                    -1.83856,
                    -0.1836,
                    0.00229
                ],
                [
                    -0.20551,
                    -1.84034,
                    0.03308
                ],
                [
                    -0.01504,
                    -0.01067,
                    -1.99674
                ]
            ],
            [
                [
                    -1.83856,
                    0.1836,
                    0.00229
                ],
                [
                    0.20512,
                    -1.84044,
                    -0.03322
                ],
                [
                    -0.01504,
                    0.01067,
                    -1.99674
                ]
            ],
            [
                [
                    -1.83857,
                    0.18361,
                    0.00228
                ],
                [
                    0.20551,
                    -1.84034,
                    -0.03308
                ],
                [
                    -0.01494,
                    0.01045,
                    -1.99672
                ]
            ],
            [
                [
                    -1.83857,
                    -0.18361,
                    0.00228
                ],
                [
                    -0.20512,
                    -1.84044,
                    0.03322
                ],
                [
                    -0.01494,
                    -0.01045,
                    -1.99672
                ]
            ],
            [
                [
                    -1.83856,
                    0.1836,
                    -0.00229
                ],
                [
                    0.20512,
                    -1.84044,
                    0.03322
                ],
                [
                    0.01494,
                    -0.01045,
                    -1.99672
                ]
            ],
            [
                [
                    -1.83856,
                    -0.1836,
                    -0.00229
                ],
                [
                    -0.20551,
                    -1.84034,
                    -0.03308
                ],
                [
                    0.01494,
                    0.01045,
                    -1.99672
                ]
            ]
        ]
    },
    "band_gap": 2.5928,
    "is_direct": true,
    "formula": "K2MgO2"
}