{
    "mp_id": "mp-7863",
    "nelements": 3,
    "nsites": 7,
    "elements": [
        "O",
        "Rb",
        "Sn"
    ],
    "structure": {
        "@module": "pymatgen.core.structure",
        "@class": "Structure",
        "charge": null,
        "lattice": {
            "matrix": [
                [
                    3.06033615,
                    1.76688562,
                    4.95698302
                ],
                [
                    -3.06033615,
                    1.76688562,
                    4.95698302
                ],
                [
                    0.0,
                    -3.53377224,
                    4.95698302
                ]
            ],
            "a": 6.087628668515182,
            "b": 6.087628668515182,
            "c": 6.087629005184444,
            "alpha": 60.35943912802025,
            "beta": 60.35943912802025,
            "gamma": 60.35943946247394,
            "volume": 160.82232342661706
        },
        "sites": [
            {
                "species": [
                    {
                        "element": "Rb",
                        "occu": 1
                    }
                ],
                "abc": [
                    0.5,
                    0.5,
                    0.5
                ],
                "xyz": [
                    0.0,
                    -4.999999998478444e-07,
                    7.4354745300000005
                ],
                "label": "Rb",
                "properties": {}
            },
            {
                "species": [
                    {
                        "element": "Rb",
                        "occu": 1
                    }
                ],
                "abc": [
                    0.0,
                    0.0,
                    0.0
                ],
                "xyz": [
                    0.0,
                    0.0,
                    0.0
                ],
                "label": "Rb",
                "properties": {}
            },
            {
                "species": [
                    {
                        "element": "Sn",
                        "occu": 1
                    }
                ],
                "abc": [
                    0.23763712,
                    0.23763712,
                    0.23763712
                ],
                "xyz": [
                    0.0,
                    -2.3763711987090375e-07,
                    3.5338895062851075
                ],
                "label": "Sn",
                "properties": {}
            },
            {
                "species": [
                    {
                        "element": "Sn",
                        "occu": 1
                    }
                ],
                "abc": [
                    0.76236288,
                    0.76236288,
                    0.76236288
                ],
                "xyz": [
                    0.0,
                    -7.623628799358073e-07,
                    11.337059553714893
                ],
                "label": "Sn",
                "properties": {}
            },
            {
                "species": [
                    {
                        "element": "O",
                        "occu": 1
                    }
                ],
                "abc": [
                    0.0,
                    0.5,
                    0.0
                ],
                "xyz": [
                    -1.530168075,
                    0.88344281,
                    2.47849151
                ],
                "label": "O",
                "properties": {}
            },
            {
                "species": [
                    {
                        "element": "O",
                        "occu": 1
                    }
                ],
                "abc": [
                    0.0,
                    0.0,
                    0.5
                ],
                "xyz": [
                    0.0,
                    -1.76688612,
                    2.47849151
                ],
                "label": "O",
                "properties": {}
            },
            {
                "species": [
                    {
                        "element": "O",
                        "occu": 1
                    }
                ],
                "abc": [
                    0.5,
                    0.0,
                    0.0
                ],
                "xyz": [
                    1.530168075,
                    0.88344281,
                    2.47849151
                ],
                "label": "O",
                "properties": {}
            }
        ]
    },
    "spacegroup": {
        "source": "spglib",
        "symbol": "R-3m",
        "number": 166,
        "point_group": "-3m",
        "crystal_system": "trigonal",
        "hall": "-R 3 2\""
    },
    "dielectric": {
        "epsilon_ionic": [
            [
                7.86451203,
                1e-08,
                -1e-08
            ],
            [
                1e-08,
                7.86470961,
                -1.015e-05
            ],
            [
                -1e-08,
                -1.015e-05,
                3.60229043
            ]
        ],
        "epsilon_ionic_avg": 6.443837356666667,
        "epsilon_ionic_eig": [
            7.864512029999494,
            7.864709610024676,
            3.602290429975831
        ],
        "epsilon_electronic": [
            [
                5.45029557,
                0.0,
                0.0
            ],
            [
                0.0,
                5.45029672,
                -0.0
            ],
            [
                0.0,
                0.0,
                4.44581934
            ]
        ],
        "epsilon_electronic_avg": 5.115470543333333,
        "epsilon_electronic_eig": [
            5.45029557,
            5.45029672,
            4.44581934
        ]
    },
    "phonon": {
        "lowest_freq": -0.074641741071247,
        "frequency": [
            -0.074641741071247,
            -0.07464173321290477,
            -0.02933359439649003,
            0.7865704308290985,
            0.7865704650078736,
            1.637786837057513,
            2.183588792205711,
            2.3555609181017703,
            2.35556114636174,
            2.8699569485621397,
            2.8699572508734414,
            3.1942457036568066,
            5.726516421388529,
            5.726517018889943,
            6.305921043285634,
            6.545308717460417,
            6.545308904159118,
            7.086006191093534,
            15.952509541664845,
            15.952510231086512,
            20.34933458515989
        ]
    },
    "born_effective_charge": {
        "avg_abs_trace": 2.0056547619047618,
        "tensors": [
            [
                [
                    1.35962,
                    0.0,
                    0.0
                ],
                [
                    0.0,
                    1.35963,
                    -1e-05
                ],
                [
                    -0.0,
                    0.0,
                    0.85209
                ]
            ],
            [
                [
                    1.15805,
                    -0.0,
                    -0.0
                ],
                [
                    0.0,
                    1.15806,
                    0.0
                ],
                [
                    -0.0,
                    0.0,
                    1.45299
                ]
            ],
            [
                [
                    2.59422,
                    -0.0004,
                    0.00037
                ],
                [
                    0.0,
                    2.59404,
                    0.0001
                ],
                [
                    -0.0,
                    -0.0,
                    1.67086
                ]
            ],
            [
                [
                    2.59422,
                    0.0004,
                    -0.00037
                ],
                [
                    0.0,
                    2.59439,
                    -0.0001
                ],
                [
                    -0.0,
                    -0.0,
                    1.6712
                ]
            ],
            [
                [
                    -3.35284,
                    1.35816,
                    -1.85976
                ],
                [
                    1.35817,
                    -1.78458,
                    1.07373
                ],
                [
                    -0.82211,
                    0.47464,
                    -1.88238
                ]
            ],
            [
                [
                    -1.00043,
                    -0.0,
                    0.0
                ],
                [
                    0.0,
                    -4.13697,
                    -2.14745
                ],
                [
                    -0.0,
                    -0.94929,
                    -1.88238
                ]
            ],
            [
                [
                    -3.35284,
                    -1.35816,
                    1.85976
                ],
                [
                    -1.35817,
                    -1.78458,
                    1.07373
                ],
                [
                    0.82211,
                    0.47464,
                    -1.88238
                ]
            ]
        ]
    },
    "band_gap": 0.9447999999999999,
    "is_direct": true,
    "formula": "Rb2Sn2O3"
}