{
    "mp_id": "mp-760400",
    "nelements": 3,
    "nsites": 11,
    "elements": [
        "Bi",
        "Na",
        "O"
    ],
    "structure": {
        "@module": "pymatgen.core.structure",
        "@class": "Structure",
        "charge": null,
        "lattice": {
            "matrix": [
                [
                    5.3986097,
                    -2.25579754,
                    -0.00030932
                ],
                [
                    5.3986097,
                    2.25579754,
                    -0.00030932
                ],
                [
                    -2.07284019,
                    0.0,
                    6.14581367
                ]
            ],
            "a": 5.85094943834614,
            "b": 5.85094943834614,
            "c": 6.485961156192512,
            "alpha": 107.15341659642799,
            "beta": 107.15341659642799,
            "gamma": 45.355013873392416,
            "volume": 149.68664052790663
        },
        "sites": [
            {
                "species": [
                    {
                        "element": "Na",
                        "occu": 1
                    }
                ],
                "abc": [
                    0.32047799,
                    0.32047799,
                    0.64210441
                ],
                "xyz": [
                    2.129291343676768,
                    0.0,
                    3.946055800041551
                ],
                "label": "Na",
                "properties": {}
            },
            {
                "species": [
                    {
                        "element": "Na",
                        "occu": 1
                    }
                ],
                "abc": [
                    0.30312351,
                    0.30312351,
                    0.1732121
                ],
                "xyz": [
                    2.9138500404937946,
                    0.0,
                    1.0643417676611806
                ],
                "label": "Na",
                "properties": {}
            },
            {
                "species": [
                    {
                        "element": "Na",
                        "occu": 1
                    }
                ],
                "abc": [
                    0.69687649,
                    0.69687649,
                    0.8267879
                ],
                "xyz": [
                    5.810529169506204,
                    0.0,
                    5.080853262338819
                ],
                "label": "Na",
                "properties": {}
            },
            {
                "species": [
                    {
                        "element": "Na",
                        "occu": 1
                    }
                ],
                "abc": [
                    0.67952201,
                    0.67952201,
                    0.35789559
                ],
                "xyz": [
                    6.595087866323231,
                    0.0,
                    2.1991392299584485
                ],
                "label": "Na",
                "properties": {}
            },
            {
                "species": [
                    {
                        "element": "Na",
                        "occu": 1
                    }
                ],
                "abc": [
                    0.0,
                    0.0,
                    0.0
                ],
                "xyz": [
                    0.0,
                    0.0,
                    0.0
                ],
                "label": "Na",
                "properties": {}
            },
            {
                "species": [
                    {
                        "element": "Bi",
                        "occu": 1
                    }
                ],
                "abc": [
                    0.0,
                    0.0,
                    0.5
                ],
                "xyz": [
                    -1.036420095,
                    0.0,
                    3.072906835
                ],
                "label": "Bi",
                "properties": {}
            },
            {
                "species": [
                    {
                        "element": "O",
                        "occu": 1
                    }
                ],
                "abc": [
                    0.85996721,
                    0.85996721,
                    0.66493931
                ],
                "xyz": [
                    7.906941717497005,
                    0.0,
                    4.0860610910035735
                ],
                "label": "O",
                "properties": {}
            },
            {
                "species": [
                    {
                        "element": "O",
                        "occu": 1
                    }
                ],
                "abc": [
                    0.5,
                    0.5,
                    0.5
                ],
                "xyz": [
                    4.362189604999999,
                    0.0,
                    3.072597515
                ],
                "label": "O",
                "properties": {}
            },
            {
                "species": [
                    {
                        "element": "O",
                        "occu": 1
                    }
                ],
                "abc": [
                    0.8485185,
                    0.8485185,
                    0.1917772
                ],
                "xyz": [
                    8.764116921773232,
                    0.0,
                    1.178102009869484
                ],
                "label": "O",
                "properties": {}
            },
            {
                "species": [
                    {
                        "element": "O",
                        "occu": 1
                    }
                ],
                "abc": [
                    0.1514815,
                    0.1514815,
                    0.8082228
                ],
                "xyz": [
                    -0.039737711773232265,
                    0.0,
                    4.967093020130516
                ],
                "label": "O",
                "properties": {}
            },
            {
                "species": [
                    {
                        "element": "O",
                        "occu": 1
                    }
                ],
                "abc": [
                    0.14003279,
                    0.14003279,
                    0.33506069
                ],
                "xyz": [
                    0.8174374925029948,
                    0.0,
                    2.0591339389964265
                ],
                "label": "O",
                "properties": {}
            }
        ]
    },
    "spacegroup": {
        "source": "spglib",
        "symbol": "C2/m",
        "number": 12,
        "point_group": "2/m",
        "crystal_system": "monoclinic",
        "hall": "-C 2y"
    },
    "dielectric": {
        "epsilon_ionic": [
            [
                3.96778352,
                -1e-08,
                0.11286668
            ],
            [
                -1e-08,
                11.03636914,
                -0.0
            ],
            [
                0.11286668,
                -0.0,
                4.3164992
            ]
        ],
        "epsilon_ionic_avg": 6.4402172866666705,
        "epsilon_ionic_eig": [
            3.934440748966504,
            4.3498419710335,
            11.036369140000007
        ],
        "epsilon_electronic": [
            [
                3.6188363,
                0.0,
                0.03073721
            ],
            [
                0.0,
                4.24416714,
                0.0
            ],
            [
                0.03073732,
                0.0,
                3.70754771
            ]
        ],
        "epsilon_electronic_avg": 3.856850383333333,
        "epsilon_electronic_eig": [
            3.60922712729492,
            3.71715688270508,
            4.24416714
        ]
    },
    "phonon": {
        "lowest_freq": -0.17544723687109817,
        "frequency": [
            -0.17544723687109817,
            -0.09191648469863113,
            -0.01228976411117046,
            3.287598690095081,
            4.401979389635276,
            4.878169766683062,
            4.882002897076008,
            4.942175638503862,
            4.9642479592262125,
            5.139998259611533,
            5.41835211447155,
            5.640108740430974,
            5.942104304501308,
            6.474147067981755,
            7.049933955181091,
            7.416034938043236,
            7.568598290199026,
            7.579896312855236,
            7.900852413168002,
            8.144816647664623,
            8.897577087490037,
            9.266094200883272,
            9.412529504658593,
            10.179947792051468,
            10.465089998467933,
            10.798776679436237,
            11.94845634160636,
            11.958455111368439,
            12.633905696819847,
            13.22906176820065,
            13.74984330226884,
            15.151183664460842,
            16.03297537442457
        ]
    },
    "born_effective_charge": {
        "avg_abs_trace": 1.6548787878787878,
        "tensors": [
            [
                [
                    1.12274,
                    0.0,
                    0.05558
                ],
                [
                    7e-05,
                    0.954,
                    -3e-05
                ],
                [
                    -0.01903,
                    0.0,
                    0.70105
                ]
            ],
            [
                [
                    1.0551,
                    0.0,
                    0.04845
                ],
                [
                    7e-05,
                    0.89235,
                    6e-05
                ],
                [
                    0.07314,
                    0.0,
                    1.18964
                ]
            ],
            [
                [
                    1.05517,
                    0.0,
                    0.04843
                ],
                [
                    -7e-05,
                    0.89235,
                    -6e-05
                ],
                [
                    0.07301,
                    0.0,
                    1.18956
                ]
            ],
            [
                [
                    1.12276,
                    0.0,
                    0.05564
                ],
                [
                    -7e-05,
                    0.954,
                    3e-05
                ],
                [
                    -0.01913,
                    0.0,
                    0.70098
                ]
            ],
            [
                [
                    0.8063,
                    0.0,
                    -0.2594
                ],
                [
                    0.0,
                    0.77438,
                    0.0
                ],
                [
                    -0.16562,
                    0.0,
                    1.29838
                ]
            ],
            [
                [
                    3.41736,
                    0.0,
                    0.35923
                ],
                [
                    0.0,
                    5.99462,
                    0.0
                ],
                [
                    0.14414,
                    0.0,
                    3.18476
                ]
            ],
            [
                [
                    -2.10303,
                    0.0,
                    0.33927
                ],
                [
                    5e-05,
                    -1.52554,
                    -5e-05
                ],
                [
                    0.38517,
                    0.0,
                    -1.43046
                ]
            ],
            [
                [
                    -1.15784,
                    0.0,
                    -0.13136
                ],
                [
                    0.0,
                    -4.29076,
                    0.0
                ],
                [
                    -0.04894,
                    0.0,
                    -0.89477
                ]
            ],
            [
                [
                    -1.60763,
                    0.0,
                    -0.42772
                ],
                [
                    -8e-05,
                    -1.55993,
                    8e-05
                ],
                [
                    -0.40403,
                    0.0,
                    -2.25425
                ]
            ],
            [
                [
                    -1.60767,
                    0.0,
                    -0.42734
                ],
                [
                    8e-05,
                    -1.55993,
                    -8e-05
                ],
                [
                    -0.40434,
                    0.0,
                    -2.25431
                ]
            ],
            [
                [
                    -2.10326,
                    0.0,
                    0.33922
                ],
                [
                    -5e-05,
                    -1.52554,
                    5e-05
                ],
                [
                    0.38562,
                    0.0,
                    -1.43058
                ]
            ]
        ]
    },
    "band_gap": 1.0303000000000002,
    "is_direct": false,
    "formula": "Na5BiO5"
}