{
    "mp_id": "mp-7469",
    "nelements": 3,
    "nsites": 12,
    "elements": [
        "Cu",
        "Na",
        "O"
    ],
    "structure": {
        "@module": "pymatgen.core.structure",
        "@class": "Structure",
        "charge": null,
        "lattice": {
            "matrix": [
                [
                    -4.34792186,
                    4.34792186,
                    2.30472669
                ],
                [
                    4.34792186,
                    -4.34792186,
                    2.30472669
                ],
                [
                    4.34792186,
                    4.34792186,
                    -2.30472669
                ]
            ],
            "a": 6.566628824361102,
            "b": 6.566628824361102,
            "c": 6.566628824361102,
            "alpha": 97.07588996327506,
            "beta": 97.07588996327506,
            "gamma": 138.90599874911294,
            "volume": 174.27812682309806
        },
        "sites": [
            {
                "species": [
                    {
                        "element": "Na",
                        "occu": 1
                    }
                ],
                "abc": [
                    0.32792567,
                    0.0,
                    0.32792567
                ],
                "xyz": [
                    0.0,
                    2.8515903780962923,
                    0.0
                ],
                "label": "Na",
                "properties": {}
            },
            {
                "species": [
                    {
                        "element": "Na",
                        "occu": 1
                    }
                ],
                "abc": [
                    0.67207433,
                    0.0,
                    0.67207433
                ],
                "xyz": [
                    0.0,
                    5.844253341903707,
                    0.0
                ],
                "label": "Na",
                "properties": {}
            },
            {
                "species": [
                    {
                        "element": "Na",
                        "occu": 1
                    }
                ],
                "abc": [
                    0.0,
                    0.32792567,
                    0.32792567
                ],
                "xyz": [
                    2.8515903780962923,
                    0.0,
                    0.0
                ],
                "label": "Na",
                "properties": {}
            },
            {
                "species": [
                    {
                        "element": "Na",
                        "occu": 1
                    }
                ],
                "abc": [
                    0.0,
                    0.67207433,
                    0.67207433
                ],
                "xyz": [
                    5.844253341903707,
                    0.0,
                    0.0
                ],
                "label": "Na",
                "properties": {}
            },
            {
                "species": [
                    {
                        "element": "Cu",
                        "occu": 1
                    }
                ],
                "abc": [
                    0.64771652,
                    0.35228348,
                    0.0
                ],
                "xyz": [
                    -1.2845197727822546,
                    1.2845197727822546,
                    2.30472669
                ],
                "label": "Cu",
                "properties": {}
            },
            {
                "species": [
                    {
                        "element": "Cu",
                        "occu": 1
                    }
                ],
                "abc": [
                    0.35228348,
                    0.35228348,
                    0.70456596
                ],
                "xyz": [
                    3.0633977392958855,
                    3.0633977392958855,
                    2.304726689938974e-06
                ],
                "label": "Cu",
                "properties": {}
            },
            {
                "species": [
                    {
                        "element": "Cu",
                        "occu": 1
                    }
                ],
                "abc": [
                    0.35228348,
                    0.64771652,
                    0.0
                ],
                "xyz": [
                    1.2845197727822546,
                    -1.2845197727822546,
                    2.30472669
                ],
                "label": "Cu",
                "properties": {}
            },
            {
                "species": [
                    {
                        "element": "Cu",
                        "occu": 1
                    }
                ],
                "abc": [
                    0.64771652,
                    0.64771652,
                    0.29543404
                ],
                "xyz": [
                    1.2845241207041143,
                    1.2845241207041143,
                    2.30472438527331
                ],
                "label": "Cu",
                "properties": {}
            },
            {
                "species": [
                    {
                        "element": "O",
                        "occu": 1
                    }
                ],
                "abc": [
                    0.5,
                    0.20526334,
                    0.70526334
                ],
                "xyz": [
                    1.7849379260852247,
                    4.34792186,
                    0.0
                ],
                "label": "O",
                "properties": {}
            },
            {
                "species": [
                    {
                        "element": "O",
                        "occu": 1
                    }
                ],
                "abc": [
                    0.20526334,
                    0.5,
                    0.70526334
                ],
                "xyz": [
                    4.34792186,
                    1.7849379260852247,
                    0.0
                ],
                "label": "O",
                "properties": {}
            },
            {
                "species": [
                    {
                        "element": "O",
                        "occu": 1
                    }
                ],
                "abc": [
                    0.79473666,
                    0.5,
                    0.29473666
                ],
                "xyz": [
                    0.0,
                    2.562983933914775,
                    2.30472669
                ],
                "label": "O",
                "properties": {}
            },
            {
                "species": [
                    {
                        "element": "O",
                        "occu": 1
                    }
                ],
                "abc": [
                    0.5,
                    0.79473666,
                    0.29473666
                ],
                "xyz": [
                    2.562983933914775,
                    0.0,
                    2.30472669
                ],
                "label": "O",
                "properties": {}
            }
        ]
    },
    "spacegroup": {
        "source": "spglib",
        "symbol": "I4/mmm",
        "number": 139,
        "point_group": "4/mmm",
        "crystal_system": "tetragonal",
        "hall": "-I 4 2"
    },
    "dielectric": {
        "epsilon_ionic": [
            [
                2.27588795,
                -0.0,
                0.0
            ],
            [
                -0.0,
                2.27550385,
                -0.0
            ],
            [
                0.0,
                -0.0,
                1.25711924
            ]
        ],
        "epsilon_ionic_avg": 1.9361703466666667,
        "epsilon_ionic_eig": [
            2.27588795,
            2.27550385,
            1.25711924
        ],
        "epsilon_electronic": [
            [
                4.2608521,
                0.0,
                0.0
            ],
            [
                0.0,
                4.2608521,
                0.0
            ],
            [
                0.0,
                0.0,
                3.46635681
            ]
        ],
        "epsilon_electronic_avg": 3.996020336666667,
        "epsilon_electronic_eig": [
            4.2608521,
            4.2608521,
            3.46635681
        ]
    },
    "phonon": {
        "lowest_freq": -0.2354093138210809,
        "frequency": [
            -0.2354093138210809,
            -0.2354093138210809,
            -0.04906458638837631,
            2.261335464807645,
            2.270532947774747,
            2.4449823302273406,
            2.4449823302273406,
            3.390529457100728,
            4.000192080407155,
            4.372056344924309,
            4.475634480454205,
            4.475634480454205,
            5.181922155523725,
            5.616829831975692,
            5.664980435437112,
            5.664980435437112,
            5.794741626329517,
            5.794741626329517,
            6.2867159531590575,
            6.351927264515766,
            6.5309589142760025,
            6.5309589142760025,
            6.563729561515771,
            7.127943280944157,
            9.568822262647968,
            9.882550924273932,
            9.882550924273932,
            10.302692779678651,
            15.761711850908073,
            15.761711850908073,
            16.38433610866887,
            16.86028971466394,
            17.568625494111398,
            17.980693181785718,
            17.980693181785718,
            18.045207572519626
        ]
    },
    "born_effective_charge": {
        "avg_abs_trace": 0.9438599999999999,
        "tensors": [
            [
                [
                    1.19868,
                    -1e-05,
                    -0.0
                ],
                [
                    -0.0,
                    0.90682,
                    -0.0
                ],
                [
                    -0.0,
                    1e-05,
                    1.07982
                ]
            ],
            [
                [
                    1.19868,
                    1e-05,
                    -0.0
                ],
                [
                    -0.0,
                    0.90683,
                    -0.0
                ],
                [
                    -0.0,
                    -1e-05,
                    1.07982
                ]
            ],
            [
                [
                    0.90688,
                    -0.0,
                    -0.0
                ],
                [
                    -1e-05,
                    1.19857,
                    -0.0
                ],
                [
                    1e-05,
                    0.0,
                    1.07982
                ]
            ],
            [
                [
                    0.90692,
                    -0.0,
                    -0.0
                ],
                [
                    1e-05,
                    1.19857,
                    -0.0
                ],
                [
                    -1e-05,
                    0.0,
                    1.07982
                ]
            ],
            [
                [
                    0.67823,
                    0.73064,
                    -0.0
                ],
                [
                    0.73032,
                    0.67825,
                    0.0
                ],
                [
                    -2e-05,
                    2e-05,
                    -0.29446
                ]
            ],
            [
                [
                    0.67823,
                    -0.73064,
                    0.0
                ],
                [
                    -0.73028,
                    0.67833,
                    -0.0
                ],
                [
                    -2e-05,
                    -2e-05,
                    -0.29446
                ]
            ],
            [
                [
                    0.67823,
                    0.73057,
                    -0.0
                ],
                [
                    0.73028,
                    0.67833,
                    0.0
                ],
                [
                    2e-05,
                    -2e-05,
                    -0.29446
                ]
            ],
            [
                [
                    0.67823,
                    -0.73057,
                    0.0
                ],
                [
                    -0.73032,
                    0.67825,
                    0.0
                ],
                [
                    2e-05,
                    2e-05,
                    -0.29446
                ]
            ],
            [
                [
                    -1.5628,
                    -0.0,
                    -0.0
                ],
                [
                    -1e-05,
                    -1.89909,
                    0.0
                ],
                [
                    1e-05,
                    0.0,
                    -0.78536
                ]
            ],
            [
                [
                    -1.8992,
                    0.00018,
                    0.0
                ],
                [
                    -0.0,
                    -1.56299,
                    0.0
                ],
                [
                    -0.0,
                    1e-05,
                    -0.78536
                ]
            ],
            [
                [
                    -1.8992,
                    -0.00018,
                    -0.0
                ],
                [
                    -0.0,
                    -1.5628,
                    -0.0
                ],
                [
                    -0.0,
                    -1e-05,
                    -0.78536
                ]
            ],
            [
                [
                    -1.56288,
                    -0.0,
                    -0.0
                ],
                [
                    1e-05,
                    -1.89909,
                    -0.0
                ],
                [
                    -1e-05,
                    0.0,
                    -0.78536
                ]
            ]
        ]
    },
    "band_gap": 1.7343,
    "is_direct": false,
    "formula": "NaCuO"
}