{
    "mp_id": "mp-761184",
    "nelements": 3,
    "nsites": 24,
    "elements": [
        "Na",
        "O",
        "Sn"
    ],
    "structure": {
        "@module": "pymatgen.core.structure",
        "@class": "Structure",
        "charge": null,
        "lattice": {
            "matrix": [
                [
                    2.76237803,
                    -4.78911689,
                    0.00042345
                ],
                [
                    2.76237803,
                    4.78911689,
                    0.00042345
                ],
                [
                    -1.87723797,
                    0.0,
                    10.80726663
                ]
            ],
            "a": 5.528686385211215,
            "b": 5.528686385211215,
            "c": 10.969094511759906,
            "alpha": 94.90093147990845,
            "beta": 94.90093147990845,
            "gamma": 120.04702620423792,
            "volume": 285.95386714589426
        },
        "sites": [
            {
                "species": [
                    {
                        "element": "Na",
                        "occu": 1
                    }
                ],
                "abc": [
                    0.15891728,
                    0.31728954,
                    0.99985563
                ],
                "xyz": [
                    -0.5615036958501065,
                    0.7584632652734714,
                    10.805908034694557
                ],
                "label": "Na",
                "properties": {}
            },
            {
                "species": [
                    {
                        "element": "Na",
                        "occu": 1
                    }
                ],
                "abc": [
                    0.0,
                    0.5,
                    0.5
                ],
                "xyz": [
                    0.44257002999999995,
                    2.394558445,
                    5.40384504
                ],
                "label": "Na",
                "properties": {}
            },
            {
                "species": [
                    {
                        "element": "Na",
                        "occu": 1
                    }
                ],
                "abc": [
                    0.0852251,
                    0.9147749,
                    0.75
                ],
                "xyz": [
                    1.3544495524999998,
                    3.9728109582761215,
                    8.1058734225
                ],
                "label": "Na",
                "properties": {}
            },
            {
                "species": [
                    {
                        "element": "Na",
                        "occu": 1
                    }
                ],
                "abc": [
                    0.5,
                    0.0,
                    0.0
                ],
                "xyz": [
                    1.381189015,
                    -2.394558445,
                    0.000211725
                ],
                "label": "Na",
                "properties": {}
            },
            {
                "species": [
                    {
                        "element": "Na",
                        "occu": 1
                    }
                ],
                "abc": [
                    0.31728954,
                    0.15891728,
                    0.49985563
                ],
                "xyz": [
                    0.37711528914989345,
                    -0.7584632652734714,
                    5.402274719694557
                ],
                "label": "Na",
                "properties": {}
            },
            {
                "species": [
                    {
                        "element": "Na",
                        "occu": 1
                    }
                ],
                "abc": [
                    0.68271046,
                    0.84108272,
                    0.50014437
                ],
                "xyz": [
                    3.270402800850106,
                    0.7584632652734711,
                    5.405838810305444
                ],
                "label": "Na",
                "properties": {}
            },
            {
                "species": [
                    {
                        "element": "Na",
                        "occu": 1
                    }
                ],
                "abc": [
                    0.9147749,
                    0.0852251,
                    0.25
                ],
                "xyz": [
                    2.2930685375,
                    -3.9728109582761215,
                    2.7022401075
                ],
                "label": "Na",
                "properties": {}
            },
            {
                "species": [
                    {
                        "element": "Na",
                        "occu": 1
                    }
                ],
                "abc": [
                    0.84108272,
                    0.68271046,
                    0.00014437
                ],
                "xyz": [
                    4.209021785850106,
                    -0.7584632652734711,
                    0.0022054953054441
                ],
                "label": "Na",
                "properties": {}
            },
            {
                "species": [
                    {
                        "element": "Sn",
                        "occu": 1
                    }
                ],
                "abc": [
                    0.41843011,
                    0.58156989,
                    0.75
                ],
                "xyz": [
                    1.3544495524999998,
                    0.7812954758288844,
                    8.1058734225
                ],
                "label": "Sn",
                "properties": {}
            },
            {
                "species": [
                    {
                        "element": "Sn",
                        "occu": 1
                    }
                ],
                "abc": [
                    0.24892384,
                    0.75107616,
                    0.25
                ],
                "xyz": [
                    2.2930685375,
                    2.404866157064685,
                    2.7022401075
                ],
                "label": "Sn",
                "properties": {}
            },
            {
                "species": [
                    {
                        "element": "Sn",
                        "occu": 1
                    }
                ],
                "abc": [
                    0.75107616,
                    0.24892384,
                    0.75
                ],
                "xyz": [
                    1.3544495524999998,
                    -2.404866157064685,
                    8.1058734225
                ],
                "label": "Sn",
                "properties": {}
            },
            {
                "species": [
                    {
                        "element": "Sn",
                        "occu": 1
                    }
                ],
                "abc": [
                    0.58156989,
                    0.41843011,
                    0.25
                ],
                "xyz": [
                    2.2930685375,
                    -0.7812954758288844,
                    2.7022401075
                ],
                "label": "Sn",
                "properties": {}
            },
            {
                "species": [
                    {
                        "element": "O",
                        "occu": 1
                    }
                ],
                "abc": [
                    0.04745781,
                    0.24339766,
                    0.64129221
                ],
                "xyz": [
                    -0.4004053262438896,
                    0.9383788450590664,
                    6.930739063960725
                ],
                "label": "O",
                "properties": {}
            },
            {
                "species": [
                    {
                        "element": "O",
                        "occu": 1
                    }
                ],
                "abc": [
                    0.12138306,
                    0.58454867,
                    0.85723702
                ],
                "xyz": [
                    0.3408124183982424,
                    2.2181542457181527,
                    9.26468796703771
                ],
                "label": "O",
                "properties": {}
            },
            {
                "species": [
                    {
                        "element": "O",
                        "occu": 1
                    }
                ],
                "abc": [
                    0.41545133,
                    0.87861694,
                    0.64276298
                ],
                "xyz": [
                    2.368086686601757,
                    2.2181542457181527,
                    6.947058877962289
                ],
                "label": "O",
                "properties": {}
            },
            {
                "species": [
                    {
                        "element": "O",
                        "occu": 1
                    }
                ],
                "abc": [
                    0.31796482,
                    0.48732187,
                    0.35772189
                ],
                "xyz": [
                    1.5529771456992572,
                    0.8110707085955744,
                    3.8663368432664114
                ],
                "label": "O",
                "properties": {}
            },
            {
                "species": [
                    {
                        "element": "O",
                        "occu": 1
                    }
                ],
                "abc": [
                    0.24339766,
                    0.04745781,
                    0.14129221
                ],
                "xyz": [
                    0.5382136587561104,
                    -0.9383788450590664,
                    1.5271057489607238
                ],
                "label": "O",
                "properties": {}
            },
            {
                "species": [
                    {
                        "element": "O",
                        "occu": 1
                    }
                ],
                "abc": [
                    0.51267813,
                    0.68203518,
                    0.14227811
                ],
                "xyz": [
                    3.033159929300742,
                    0.8110707085955746,
                    1.538143371733589
                ],
                "label": "O",
                "properties": {}
            },
            {
                "species": [
                    {
                        "element": "O",
                        "occu": 1
                    }
                ],
                "abc": [
                    0.48732187,
                    0.31796482,
                    0.85772189
                ],
                "xyz": [
                    0.6143581606992572,
                    -0.8110707085955744,
                    9.269970158266412
                ],
                "label": "O",
                "properties": {}
            },
            {
                "species": [
                    {
                        "element": "O",
                        "occu": 1
                    }
                ],
                "abc": [
                    0.75660234,
                    0.95254219,
                    0.85870779
                ],
                "xyz": [
                    3.1093044312438893,
                    0.938378845059066,
                    9.281007781039277
                ],
                "label": "O",
                "properties": {}
            },
            {
                "species": [
                    {
                        "element": "O",
                        "occu": 1
                    }
                ],
                "abc": [
                    0.68203518,
                    0.51267813,
                    0.64227811
                ],
                "xyz": [
                    2.094540944300742,
                    -0.8110707085955746,
                    6.94177668673359
                ],
                "label": "O",
                "properties": {}
            },
            {
                "species": [
                    {
                        "element": "O",
                        "occu": 1
                    }
                ],
                "abc": [
                    0.58454867,
                    0.12138306,
                    0.35723702
                ],
                "xyz": [
                    1.2794314033982424,
                    -2.2181542457181527,
                    3.8610546520377116
                ],
                "label": "O",
                "properties": {}
            },
            {
                "species": [
                    {
                        "element": "O",
                        "occu": 1
                    }
                ],
                "abc": [
                    0.87861694,
                    0.41545133,
                    0.14276298
                ],
                "xyz": [
                    3.306705671601757,
                    -2.2181542457181527,
                    1.5434255629622893
                ],
                "label": "O",
                "properties": {}
            },
            {
                "species": [
                    {
                        "element": "O",
                        "occu": 1
                    }
                ],
                "abc": [
                    0.95254219,
                    0.75660234,
                    0.35870779
                ],
                "xyz": [
                    4.047923416243889,
                    -0.938378845059066,
                    3.8773744660392766
                ],
                "label": "O",
                "properties": {}
            }
        ]
    },
    "spacegroup": {
        "source": "spglib",
        "symbol": "C2/c",
        "number": 15,
        "point_group": "2/m",
        "crystal_system": "monoclinic",
        "hall": "-C 2yc"
    },
    "dielectric": {
        "epsilon_ionic": [
            [
                6.0916711,
                -0.0,
                -0.2241091
            ],
            [
                -0.0,
                6.47709522,
                0.0
            ],
            [
                -0.2241091,
                0.0,
                4.20929646
            ]
        ],
        "epsilon_ionic_avg": 5.592687593333333,
        "epsilon_ionic_eig": [
            6.117984922134516,
            4.182982637865484,
            6.47709522
        ],
        "epsilon_electronic": [
            [
                3.51751519,
                0.0,
                -0.0027488
            ],
            [
                0.0,
                3.52532765,
                0.0
            ],
            [
                -0.00275041,
                0.0,
                2.97921174
            ]
        ],
        "epsilon_electronic_avg": 3.34068486,
        "epsilon_electronic_eig": [
            3.517529234364315,
            2.979197695635685,
            3.52532765
        ]
    },
    "phonon": {
        "lowest_freq": -0.02260053650221672,
        "frequency": [
            -0.02260053650221672,
            -0.01628350019997154,
            -0.012626336912237343,
            1.9121030260014285,
            1.9711417189148304,
            3.210439837091367,
            3.362372124881524,
            3.578704910410758,
            4.021860347205488,
            4.075092886769621,
            4.077404449599529,
            4.601529079371231,
            4.657683239557221,
            4.9991903910426645,
            5.391736366707959,
            5.574572140807183,
            5.688514133265669,
            5.885240476235308,
            6.019962291376173,
            6.285229969862578,
            6.378834339587407,
            6.6511978988660845,
            6.769848173909087,
            7.009654626690858,
            7.0826012953909805,
            7.137770689742359,
            7.699044311300208,
            7.758649526484218,
            7.899469925515031,
            7.924469680101163,
            7.95121215636597,
            7.996315797811657,
            8.021066956678382,
            8.023770008471049,
            8.194751173770912,
            8.468066784159767,
            9.255153941382188,
            9.308082399518298,
            9.479867441191633,
            9.603081285886283,
            9.976149158025958,
            10.178106092232088,
            10.30918327137421,
            10.36692373292864,
            10.569907736269979,
            10.749449701820534,
            10.90181650591916,
            11.62669936469841,
            11.987443145670461,
            12.056238120514442,
            12.125401084726974,
            12.157380449762906,
            12.300013574079527,
            12.335668101326146,
            12.343908270439789,
            12.350380334668836,
            13.598391032503175,
            13.645899689917048,
            13.678896145527027,
            13.77501061151869,
            14.06640785033879,
            14.619290744714837,
            14.624666201641563,
            15.5836305743236,
            15.600799838447564,
            15.605031219741614,
            15.621413324721708,
            16.29935143925068,
            16.500363946216194,
            16.516156360666166,
            16.517571398335456,
            17.41636757018954
        ]
    },
    "born_effective_charge": {
        "avg_abs_trace": 1.8662851388888893,
        "tensors": [
            [
                [
                    0.931,
                    -0.0627,
                    -0.01267
                ],
                [
                    -0.06247,
                    1.00321,
                    0.02044
                ],
                [
                    -0.00478,
                    0.00787,
                    1.31259
                ]
            ],
            [
                [
                    1.03498,
                    -0.12229,
                    0.02602
                ],
                [
                    -0.12201,
                    0.89518,
                    0.04561
                ],
                [
                    0.00844,
                    0.01459,
                    1.31249
                ]
            ],
            [
                [
                    1.04397,
                    -0.0,
                    0.00487
                ],
                [
                    -0.0,
                    1.04297,
                    0.0
                ],
                [
                    -0.00051,
                    1e-05,
                    0.61471
                ]
            ],
            [
                [
                    1.03498,
                    0.12229,
                    0.02602
                ],
                [
                    0.12201,
                    0.89518,
                    -0.04561
                ],
                [
                    0.00844,
                    -0.01459,
                    1.31249
                ]
            ],
            [
                [
                    0.931,
                    0.0627,
                    -0.01267
                ],
                [
                    0.06247,
                    1.00321,
                    -0.02044
                ],
                [
                    -0.00478,
                    -0.00787,
                    1.31259
                ]
            ],
            [
                [
                    0.931,
                    0.0627,
                    -0.01267
                ],
                [
                    0.06247,
                    1.00321,
                    -0.02044
                ],
                [
                    -0.00478,
                    -0.00787,
                    1.31259
                ]
            ],
            [
                [
                    1.04397,
                    0.0,
                    0.00487
                ],
                [
                    -0.0,
                    1.04297,
                    0.0
                ],
                [
                    -0.00051,
                    -1e-05,
                    0.61471
                ]
            ],
            [
                [
                    0.931,
                    -0.0627,
                    -0.01267
                ],
                [
                    -0.06247,
                    1.00321,
                    0.02044
                ],
                [
                    -0.00478,
                    0.00787,
                    1.31259
                ]
            ],
            [
                [
                    4.05843,
                    0.0,
                    -0.01519
                ],
                [
                    -0.0,
                    4.05998,
                    0.0
                ],
                [
                    0.00839,
                    0.0,
                    2.46
                ]
            ],
            [
                [
                    4.0505,
                    0.0,
                    0.00764
                ],
                [
                    -0.0,
                    4.06826,
                    0.0
                ],
                [
                    -0.0071,
                    2e-05,
                    2.45812
                ]
            ],
            [
                [
                    4.0505,
                    -0.0,
                    0.00764
                ],
                [
                    -0.0,
                    4.06822,
                    0.0
                ],
                [
                    -0.0071,
                    -2e-05,
                    2.45812
                ]
            ],
            [
                [
                    4.05843,
                    -0.0,
                    -0.01519
                ],
                [
                    -0.0,
                    4.05993,
                    0.0
                ],
                [
                    0.00839,
                    -0.0,
                    2.46
                ]
            ],
            [
                [
                    -2.23279,
                    0.37607,
                    -0.0945
                ],
                [
                    0.37454,
                    -1.80298,
                    -0.16049
                ],
                [
                    -0.12892,
                    -0.21774,
                    -1.59315
                ]
            ],
            [
                [
                    -2.22363,
                    0.37392,
                    -0.08218
                ],
                [
                    0.39488,
                    -1.79564,
                    -0.14748
                ],
                [
                    -0.12197,
                    -0.21077,
                    -1.56619
                ]
            ],
            [
                [
                    -2.22364,
                    -0.37393,
                    -0.08218
                ],
                [
                    -0.39488,
                    -1.79564,
                    0.14748
                ],
                [
                    -0.12197,
                    0.2107,
                    -1.56623
                ]
            ],
            [
                [
                    -1.56852,
                    -0.01645,
                    0.1777
                ],
                [
                    0.00635,
                    -2.43778,
                    0.00425
                ],
                [
                    0.25111,
                    0.00331,
                    -1.57589
                ]
            ],
            [
                [
                    -2.23279,
                    -0.37607,
                    -0.0945
                ],
                [
                    -0.37447,
                    -1.803,
                    0.16043
                ],
                [
                    -0.12892,
                    0.21774,
                    -1.59315
                ]
            ],
            [
                [
                    -1.56848,
                    0.01646,
                    0.17765
                ],
                [
                    -0.00635,
                    -2.43778,
                    -0.00425
                ],
                [
                    0.25103,
                    -0.0033,
                    -1.5759
                ]
            ],
            [
                [
                    -1.56852,
                    0.01645,
                    0.1777
                ],
                [
                    -0.00612,
                    -2.43778,
                    -0.0042
                ],
                [
                    0.25111,
                    -0.00331,
                    -1.57589
                ]
            ],
            [
                [
                    -2.23281,
                    -0.37604,
                    -0.09451
                ],
                [
                    -0.37454,
                    -1.80298,
                    0.16049
                ],
                [
                    -0.12894,
                    0.21779,
                    -1.59313
                ]
            ],
            [
                [
                    -1.56848,
                    -0.01646,
                    0.17765
                ],
                [
                    0.00612,
                    -2.43778,
                    0.0042
                ],
                [
                    0.25103,
                    0.0033,
                    -1.5759
                ]
            ],
            [
                [
                    -2.22363,
                    -0.37392,
                    -0.08218
                ],
                [
                    -0.39496,
                    -1.79558,
                    0.14755
                ],
                [
                    -0.12197,
                    0.21077,
                    -1.56619
                ]
            ],
            [
                [
                    -2.22364,
                    0.37393,
                    -0.08218
                ],
                [
                    0.39496,
                    -1.79558,
                    -0.14755
                ],
                [
                    -0.12197,
                    -0.2107,
                    -1.56623
                ]
            ],
            [
                [
                    -2.23281,
                    0.37604,
                    -0.09451
                ],
                [
                    0.37447,
                    -1.803,
                    -0.16043
                ],
                [
                    -0.12894,
                    -0.21779,
                    -1.59313
                ]
            ]
        ]
    },
    "band_gap": 2.7475,
    "is_direct": false,
    "formula": "Na2SnO3"
}