{
    "mp_id": "mp-7611",
    "nelements": 4,
    "nsites": 8,
    "elements": [
        "Ca",
        "Ge",
        "Li",
        "O"
    ],
    "structure": {
        "@module": "pymatgen.core.structure",
        "@class": "Structure",
        "charge": null,
        "lattice": {
            "matrix": [
                [
                    -2.56991102,
                    2.56991102,
                    3.28926132
                ],
                [
                    2.56991102,
                    -2.56991102,
                    3.28926132
                ],
                [
                    2.56991102,
                    2.56991102,
                    -3.28926132
                ]
            ],
            "a": 4.90184917481995,
            "b": 4.90184917481995,
            "c": 4.90184917481995,
            "alpha": 116.76126466396693,
            "beta": 116.76126466396693,
            "gamma": 95.70761544256763,
            "volume": 86.8949510046526
        },
        "sites": [
            {
                "species": [
                    {
                        "element": "Li",
                        "occu": 1
                    }
                ],
                "abc": [
                    0.25,
                    0.75,
                    0.5
                ],
                "xyz": [
                    2.56991102,
                    0.0,
                    1.64463066
                ],
                "label": "Li",
                "properties": {}
            },
            {
                "species": [
                    {
                        "element": "Li",
                        "occu": 1
                    }
                ],
                "abc": [
                    0.75,
                    0.25,
                    0.5
                ],
                "xyz": [
                    0.0,
                    2.56991102,
                    1.64463066
                ],
                "label": "Li",
                "properties": {}
            },
            {
                "species": [
                    {
                        "element": "Ca",
                        "occu": 1
                    }
                ],
                "abc": [
                    0.5,
                    0.5,
                    0.0
                ],
                "xyz": [
                    0.0,
                    0.0,
                    3.28926132
                ],
                "label": "Ca",
                "properties": {}
            },
            {
                "species": [
                    {
                        "element": "Ge",
                        "occu": 1
                    }
                ],
                "abc": [
                    0.0,
                    0.0,
                    0.0
                ],
                "xyz": [
                    0.0,
                    0.0,
                    0.0
                ],
                "label": "Ge",
                "properties": {}
            },
            {
                "species": [
                    {
                        "element": "O",
                        "occu": 1
                    }
                ],
                "abc": [
                    0.94543857,
                    0.35649677,
                    0.0
                ],
                "xyz": [
                    -1.5135280219586362,
                    1.5135280219586362,
                    4.282405555003049
                ],
                "label": "O",
                "properties": {}
            },
            {
                "species": [
                    {
                        "element": "O",
                        "occu": 1
                    }
                ],
                "abc": [
                    0.35649677,
                    0.94543857,
                    0.0
                ],
                "xyz": [
                    1.5135280219586362,
                    -1.5135280219586362,
                    4.282405555003049
                ],
                "label": "O",
                "properties": {}
            },
            {
                "species": [
                    {
                        "element": "O",
                        "occu": 1
                    }
                ],
                "abc": [
                    0.64350323,
                    0.64350323,
                    0.58894179
                ],
                "xyz": [
                    1.513527996259526,
                    1.513527996259526,
                    2.2961171178895645
                ],
                "label": "O",
                "properties": {}
            },
            {
                "species": [
                    {
                        "element": "O",
                        "occu": 1
                    }
                ],
                "abc": [
                    0.05456143,
                    0.05456143,
                    0.41105821
                ],
                "xyz": [
                    1.056383023740474,
                    1.056383023740474,
                    -0.9931442678956619
                ],
                "label": "O",
                "properties": {}
            }
        ]
    },
    "spacegroup": {
        "source": "spglib",
        "symbol": "I-42m",
        "number": 121,
        "point_group": "-42m",
        "crystal_system": "tetragonal",
        "hall": "I -4 2"
    },
    "dielectric": {
        "epsilon_ionic": [
            [
                5.54492294,
                8e-08,
                3e-08
            ],
            [
                8e-08,
                5.54490109,
                2e-08
            ],
            [
                3e-08,
                2e-08,
                9.59243183
            ]
        ],
        "epsilon_ionic_avg": 6.894085286666669,
        "epsilon_ionic_eig": [
            5.544922940292904,
            5.544901089707097,
            9.592431830000002
        ],
        "epsilon_electronic": [
            [
                3.37702551,
                0.0,
                0.0
            ],
            [
                0.0,
                3.37702551,
                -0.0
            ],
            [
                0.0,
                0.0,
                3.42917325
            ]
        ],
        "epsilon_electronic_avg": 3.39440809,
        "epsilon_electronic_eig": [
            3.37702551,
            3.37702551,
            3.42917325
        ]
    },
    "phonon": {
        "lowest_freq": -0.07172494284232586,
        "frequency": [
            -0.07172494284232586,
            -0.07172494284232586,
            -0.01807017273398786,
            5.410149448234776,
            6.90420555477005,
            6.90420555477005,
            8.14040944736075,
            8.14040944736075,
            8.823841775687542,
            10.313367234942232,
            10.313367234942232,
            10.487801435473834,
            10.801473354744646,
            11.023145979056599,
            11.428539362453767,
            12.186967311419002,
            14.406531303714132,
            14.406531303714132,
            15.060585188682449,
            15.060585188682449,
            20.73318688409253,
            21.141930440589544,
            21.141930440589544,
            21.404064347968625
        ]
    },
    "born_effective_charge": {
        "avg_abs_trace": 1.8971795833333336,
        "tensors": [
            [
                [
                    1.04648,
                    0.10587,
                    -1e-05
                ],
                [
                    -0.10587,
                    1.04647,
                    2e-05
                ],
                [
                    0.0,
                    -0.0,
                    0.90573
                ]
            ],
            [
                [
                    1.04648,
                    -0.10587,
                    1e-05
                ],
                [
                    0.10587,
                    1.04647,
                    -2e-05
                ],
                [
                    0.0,
                    -0.0,
                    0.90573
                ]
            ],
            [
                [
                    2.44665,
                    -0.0,
                    -0.0
                ],
                [
                    0.0,
                    2.44666,
                    0.0
                ],
                [
                    0.0,
                    -0.0,
                    2.43257
                ]
            ],
            [
                [
                    3.16637,
                    -0.0,
                    -0.0
                ],
                [
                    0.0,
                    3.16637,
                    0.0
                ],
                [
                    0.0,
                    -0.0,
                    3.11017
                ]
            ],
            [
                [
                    -1.92655,
                    0.40115,
                    -0.0856
                ],
                [
                    0.40097,
                    -1.92645,
                    0.08602
                ],
                [
                    -0.17545,
                    0.17545,
                    -1.83852
                ]
            ],
            [
                [
                    -1.92644,
                    0.40097,
                    0.08608
                ],
                [
                    0.40115,
                    -1.92654,
                    -0.08567
                ],
                [
                    0.17545,
                    -0.17545,
                    -1.83852
                ]
            ],
            [
                [
                    -1.92644,
                    -0.40097,
                    -0.08608
                ],
                [
                    -0.40097,
                    -1.92645,
                    -0.08602
                ],
                [
                    -0.17536,
                    -0.17536,
                    -1.83858
                ]
            ],
            [
                [
                    -1.92655,
                    -0.40115,
                    0.0856
                ],
                [
                    -0.40115,
                    -1.92654,
                    0.08567
                ],
                [
                    0.17536,
                    0.17536,
                    -1.83858
                ]
            ]
        ]
    },
    "band_gap": 4.0305,
    "is_direct": false,
    "formula": "Li2CaGeO4"
}