{
    "mp_id": "mp-7664",
    "nelements": 3,
    "nsites": 22,
    "elements": [
        "Na",
        "O",
        "Zn"
    ],
    "structure": {
        "@module": "pymatgen.core.structure",
        "@class": "Structure",
        "charge": null,
        "lattice": {
            "matrix": [
                [
                    7.45528701,
                    0.0,
                    0.0
                ],
                [
                    -3.7276435,
                    6.45646725,
                    0.0
                ],
                [
                    0.0,
                    0.0,
                    5.77430593
                ]
            ],
            "a": 7.45528701,
            "b": 7.455286407202262,
            "c": 5.77430593,
            "alpha": 90.0,
            "beta": 90.0,
            "gamma": 120.00000263029354,
            "volume": 277.9451558900918
        },
        "sites": [
            {
                "species": [
                    {
                        "element": "Na",
                        "occu": 1
                    }
                ],
                "abc": [
                    0.92666354,
                    0.46333227,
                    0.1352551
                ],
                "xyz": [
                    5.18140512779687,
                    2.9914896271231575,
                    0.7810043259927429
                ],
                "label": "Na",
                "properties": {}
            },
            {
                "species": [
                    {
                        "element": "Na",
                        "occu": 1
                    }
                ],
                "abc": [
                    0.46333227,
                    0.53666773,
                    0.6352551
                ],
                "xyz": [
                    1.4537690784505575,
                    3.4649776228768427,
                    3.6681572909927427
                ],
                "label": "Na",
                "properties": {}
            },
            {
                "species": [
                    {
                        "element": "Na",
                        "occu": 1
                    }
                ],
                "abc": [
                    0.14241099,
                    0.85758901,
                    0.96662874
                ],
                "xyz": [
                    -2.1350712949696953,
                    5.536995357024923,
                    5.581610065490428
                ],
                "label": "Na",
                "properties": {}
            },
            {
                "species": [
                    {
                        "element": "Na",
                        "occu": 1
                    }
                ],
                "abc": [
                    0.28482097,
                    0.14241099,
                    0.46662874
                ],
                "xyz": [
                    1.592564676614535,
                    0.9194718929750775,
                    2.694457100490428
                ],
                "label": "Na",
                "properties": {}
            },
            {
                "species": [
                    {
                        "element": "Na",
                        "occu": 1
                    }
                ],
                "abc": [
                    0.85758901,
                    0.71517903,
                    0.46662874
                ],
                "xyz": [
                    3.727639743655955,
                    4.617529985081768,
                    2.694457100490428
                ],
                "label": "Na",
                "properties": {}
            },
            {
                "species": [
                    {
                        "element": "Na",
                        "occu": 1
                    }
                ],
                "abc": [
                    0.14241099,
                    0.28482097,
                    0.96662874
                ],
                "xyz": [
                    3.766344044642267e-06,
                    1.8389372649182325,
                    5.581610065490428
                ],
                "label": "Na",
                "properties": {}
            },
            {
                "species": [
                    {
                        "element": "Na",
                        "occu": 1
                    }
                ],
                "abc": [
                    0.71517903,
                    0.85758901,
                    0.96662874
                ],
                "xyz": [
                    2.135078833385466,
                    5.536995357024923,
                    5.581610065490428
                ],
                "label": "Na",
                "properties": {}
            },
            {
                "species": [
                    {
                        "element": "Na",
                        "occu": 1
                    }
                ],
                "abc": [
                    0.85758901,
                    0.14241099,
                    0.46662874
                ],
                "xyz": [
                    5.862714804969696,
                    0.9194718929750775,
                    2.694457100490428
                ],
                "label": "Na",
                "properties": {}
            },
            {
                "species": [
                    {
                        "element": "Na",
                        "occu": 1
                    }
                ],
                "abc": [
                    0.53666773,
                    0.46333227,
                    0.1352551
                ],
                "xyz": [
                    2.273874431549442,
                    2.9914896271231575,
                    0.7810043259927429
                ],
                "label": "Na",
                "properties": {}
            },
            {
                "species": [
                    {
                        "element": "Na",
                        "occu": 1
                    }
                ],
                "abc": [
                    0.07333646,
                    0.53666773,
                    0.6352551
                ],
                "xyz": [
                    -1.4537616177968704,
                    3.4649776228768427,
                    3.6681572909927427
                ],
                "label": "Na",
                "properties": {}
            },
            {
                "species": [
                    {
                        "element": "Na",
                        "occu": 1
                    }
                ],
                "abc": [
                    0.46333227,
                    0.92666354,
                    0.6352551
                ],
                "xyz": [
                    3.7322768227099345e-06,
                    5.982972797779065,
                    3.6681572909927427
                ],
                "label": "Na",
                "properties": {}
            },
            {
                "species": [
                    {
                        "element": "Na",
                        "occu": 1
                    }
                ],
                "abc": [
                    0.53666773,
                    0.07333646,
                    0.1352551
                ],
                "xyz": [
                    3.7276397777231773,
                    0.47349445222093506,
                    0.7810043259927429
                ],
                "label": "Na",
                "properties": {}
            },
            {
                "species": [
                    {
                        "element": "Zn",
                        "occu": 1
                    }
                ],
                "abc": [
                    0.666667,
                    0.333333,
                    0.74403719
                ],
                "xyz": [
                    3.72764723431017,
                    2.15215359784425,
                    4.296298358357537
                ],
                "label": "Zn",
                "properties": {}
            },
            {
                "species": [
                    {
                        "element": "Zn",
                        "occu": 1
                    }
                ],
                "abc": [
                    0.333333,
                    0.666667,
                    0.24403719
                ],
                "xyz": [
                    -3.724310170039047e-06,
                    4.30431365215575,
                    1.4091453933575366
                ],
                "label": "Zn",
                "properties": {}
            },
            {
                "species": [
                    {
                        "element": "O",
                        "occu": 1
                    }
                ],
                "abc": [
                    0.18960776,
                    0.81039224,
                    0.35574952
                ],
                "xyz": [
                    -1.6072730957632426,
                    5.23227095721414,
                    2.0542065629306534
                ],
                "label": "O",
                "properties": {}
            },
            {
                "species": [
                    {
                        "element": "O",
                        "occu": 1
                    }
                ],
                "abc": [
                    0.37921551,
                    0.18960776,
                    0.85574952
                ],
                "xyz": [
                    2.120370331579965,
                    1.22419629278586,
                    4.941359527930653
                ],
                "label": "O",
                "properties": {}
            },
            {
                "species": [
                    {
                        "element": "O",
                        "occu": 1
                    }
                ],
                "abc": [
                    0.333333,
                    0.666667,
                    0.90906275
                ],
                "xyz": [
                    -3.724310170039047e-06,
                    4.30431365215575,
                    5.249206428067107
                ],
                "label": "O",
                "properties": {}
            },
            {
                "species": [
                    {
                        "element": "O",
                        "occu": 1
                    }
                ],
                "abc": [
                    0.666667,
                    0.333333,
                    0.40906275
                ],
                "xyz": [
                    3.72764723431017,
                    2.15215359784425,
                    2.3620534630671073
                ],
                "label": "O",
                "properties": {}
            },
            {
                "species": [
                    {
                        "element": "O",
                        "occu": 1
                    }
                ],
                "abc": [
                    0.81039224,
                    0.18960776,
                    0.85574952
                ],
                "xyz": [
                    5.334916605763242,
                    1.22419629278586,
                    4.941359527930653
                ],
                "label": "O",
                "properties": {}
            },
            {
                "species": [
                    {
                        "element": "O",
                        "occu": 1
                    }
                ],
                "abc": [
                    0.62078449,
                    0.81039224,
                    0.35574952
                ],
                "xyz": [
                    1.6072731784200354,
                    5.23227095721414,
                    2.0542065629306534
                ],
                "label": "O",
                "properties": {}
            },
            {
                "species": [
                    {
                        "element": "O",
                        "occu": 1
                    }
                ],
                "abc": [
                    0.18960776,
                    0.37921551,
                    0.35574952
                ],
                "xyz": [
                    3.917251256702059e-08,
                    2.4483925210070474,
                    2.0542065629306534
                ],
                "label": "O",
                "properties": {}
            },
            {
                "species": [
                    {
                        "element": "O",
                        "occu": 1
                    }
                ],
                "abc": [
                    0.81039224,
                    0.62078449,
                    0.85574952
                ],
                "xyz": [
                    3.727643470827487,
                    4.008074728992953,
                    4.941359527930653
                ],
                "label": "O",
                "properties": {}
            }
        ]
    },
    "spacegroup": {
        "source": "spglib",
        "symbol": "P6_3mc",
        "number": 186,
        "point_group": "6mm",
        "crystal_system": "hexagonal",
        "hall": "P 6c -2c"
    },
    "dielectric": {
        "epsilon_ionic": [
            [
                5.46408922,
                6.9e-07,
                0.000259
            ],
            [
                6.9e-07,
                5.46431645,
                3.408e-05
            ],
            [
                0.000259,
                3.408e-05,
                4.37786172
            ]
        ],
        "epsilon_ionic_avg": 5.10208913,
        "epsilon_ionic_eig": [
            4.377861657175053,
            5.464089279610508,
            5.464316453214441
        ],
        "epsilon_electronic": [
            [
                3.23314272,
                2.5e-07,
                -0.0
            ],
            [
                2.5e-07,
                3.23314279,
                0.0
            ],
            [
                0.0,
                -0.0,
                3.14478195
            ]
        ],
        "epsilon_electronic_avg": 3.203689153333334,
        "epsilon_electronic_eig": [
            3.233142502561889,
            3.233143007438111,
            3.14478195
        ]
    },
    "phonon": {
        "lowest_freq": -0.0792982255168918,
        "frequency": [
            -0.0792982255168918,
            -0.039815843441180276,
            -0.039815840310665866,
            3.477666784390233,
            3.591311357591173,
            3.591311422241686,
            3.8470730657767405,
            3.856571589654842,
            3.856571805120938,
            3.9406251002951884,
            3.9708054897907252,
            3.970805622121627,
            4.15662614029069,
            4.156626369601783,
            4.676410283994424,
            4.676410336256761,
            4.694536796378356,
            4.694537119153708,
            4.8232392950442105,
            4.8546716810345005,
            5.316111091712594,
            5.3737313637965,
            5.373731409277026,
            5.415726896318173,
            5.41572705426566,
            6.113840258015128,
            6.572210746029414,
            6.57221106211804,
            6.859554324272144,
            6.85955459149081,
            6.887270810889185,
            7.142307248290364,
            7.182676582469068,
            7.182676871692876,
            7.257940869833316,
            7.671890755278352,
            7.67189093048949,
            7.805179479283937,
            7.805179557565331,
            8.1873880072924,
            8.18738833565126,
            8.234929877575947,
            8.423171499690806,
            8.530390161690738,
            8.530390405220171,
            8.807472900848175,
            8.812596517197477,
            8.869903768690502,
            8.869904002898352,
            8.911134330266686,
            8.911134412545819,
            8.924138725881551,
            9.3823958695802,
            9.89053690072386,
            9.973040396821473,
            9.973040850183953,
            11.05507353110982,
            11.055074216442561,
            12.398068721475141,
            12.398068997453754,
            12.955723087396901,
            12.955723408089321,
            13.790323164945386,
            13.999929305277096,
            15.255502092357286,
            15.538640877710723
        ]
    },
    "born_effective_charge": {
        "avg_abs_trace": 1.314289090909091,
        "tensors": [
            [
                [
                    0.98942,
                    0.1369,
                    0.06862
                ],
                [
                    0.13701,
                    0.83128,
                    0.03963
                ],
                [
                    0.05115,
                    0.02953,
                    0.95858
                ]
            ],
            [
                [
                    0.98942,
                    -0.1369,
                    0.06862
                ],
                [
                    -0.13699,
                    0.83129,
                    -0.0396
                ],
                [
                    0.05115,
                    -0.02953,
                    0.95858
                ]
            ],
            [
                [
                    0.94481,
                    0.01439,
                    0.00609
                ],
                [
                    0.01433,
                    0.96134,
                    -0.00348
                ],
                [
                    0.05837,
                    -0.0337,
                    0.91606
                ]
            ],
            [
                [
                    0.94481,
                    -0.01439,
                    0.00609
                ],
                [
                    -0.01428,
                    0.96133,
                    0.00347
                ],
                [
                    0.05837,
                    0.0337,
                    0.91606
                ]
            ],
            [
                [
                    0.96959,
                    7e-05,
                    2e-05
                ],
                [
                    0.0,
                    0.93654,
                    -0.00701
                ],
                [
                    -0.0,
                    -0.06739,
                    0.91606
                ]
            ],
            [
                [
                    0.96959,
                    -7e-05,
                    2e-05
                ],
                [
                    0.0,
                    0.93659,
                    0.00701
                ],
                [
                    0.0,
                    0.06739,
                    0.91606
                ]
            ],
            [
                [
                    0.94476,
                    -0.01425,
                    -0.00601
                ],
                [
                    -0.01433,
                    0.96134,
                    -0.00348
                ],
                [
                    -0.05837,
                    -0.0337,
                    0.91606
                ]
            ],
            [
                [
                    0.94476,
                    0.01425,
                    -0.00601
                ],
                [
                    0.01429,
                    0.96133,
                    0.00347
                ],
                [
                    -0.05837,
                    0.0337,
                    0.91606
                ]
            ],
            [
                [
                    0.98936,
                    -0.13694,
                    -0.06854
                ],
                [
                    -0.13701,
                    0.83128,
                    0.03963
                ],
                [
                    -0.05115,
                    0.02953,
                    0.95858
                ]
            ],
            [
                [
                    0.98936,
                    0.13694,
                    -0.06854
                ],
                [
                    0.13699,
                    0.83129,
                    -0.0396
                ],
                [
                    -0.05115,
                    -0.02953,
                    0.95858
                ]
            ],
            [
                [
                    0.75225,
                    4e-05,
                    2e-05
                ],
                [
                    0.0,
                    1.06842,
                    0.07924
                ],
                [
                    0.0,
                    0.05906,
                    0.95858
                ]
            ],
            [
                [
                    0.75225,
                    -4e-05,
                    2e-05
                ],
                [
                    0.0,
                    1.06845,
                    -0.07925
                ],
                [
                    -0.0,
                    -0.05906,
                    0.95858
                ]
            ],
            [
                [
                    1.63127,
                    -0.00025,
                    0.0002
                ],
                [
                    0.0,
                    1.63125,
                    0.00014
                ],
                [
                    0.0,
                    -0.0,
                    1.61886
                ]
            ],
            [
                [
                    1.63127,
                    0.00025,
                    0.0002
                ],
                [
                    0.0,
                    1.63132,
                    0.0
                ],
                [
                    0.0,
                    -0.0,
                    1.61886
                ]
            ],
            [
                [
                    -1.98095,
                    0.16737,
                    0.17329
                ],
                [
                    0.1676,
                    -1.78718,
                    -0.10002
                ],
                [
                    0.12726,
                    -0.07347,
                    -1.66801
                ]
            ],
            [
                [
                    -1.98095,
                    -0.16737,
                    0.17329
                ],
                [
                    -0.16741,
                    -1.78721,
                    0.1002
                ],
                [
                    0.12726,
                    0.07347,
                    -1.66801
                ]
            ],
            [
                [
                    -1.56945,
                    -3e-05,
                    0.00011
                ],
                [
                    -0.0,
                    -1.56948,
                    7e-05
                ],
                [
                    0.0,
                    -0.0,
                    -2.23874
                ]
            ],
            [
                [
                    -1.56945,
                    3e-05,
                    0.00011
                ],
                [
                    -0.0,
                    -1.56942,
                    0.0
                ],
                [
                    0.0,
                    -0.0,
                    -2.23874
                ]
            ],
            [
                [
                    -1.98081,
                    0.1677,
                    -0.17351
                ],
                [
                    0.16741,
                    -1.78721,
                    0.1002
                ],
                [
                    -0.12726,
                    0.07347,
                    -1.66801
                ]
            ],
            [
                [
                    -1.98081,
                    -0.1677,
                    -0.17351
                ],
                [
                    -0.1676,
                    -1.78718,
                    -0.10002
                ],
                [
                    -0.12726,
                    -0.07347,
                    -1.66801
                ]
            ],
            [
                [
                    -1.69025,
                    -0.00011,
                    -0.00029
                ],
                [
                    -0.0,
                    -2.07774,
                    0.19997
                ],
                [
                    0.0,
                    0.14695,
                    -1.66801
                ]
            ],
            [
                [
                    -1.69025,
                    0.00011,
                    -0.00029
                ],
                [
                    -0.0,
                    -2.07767,
                    -0.20057
                ],
                [
                    -0.0,
                    -0.14695,
                    -1.66801
                ]
            ]
        ]
    },
    "band_gap": 1.8370999999999997,
    "is_direct": true,
    "formula": "Na6ZnO4"
}