{
    "mp_id": "mp-770128",
    "nelements": 3,
    "nsites": 30,
    "elements": [
        "Cs",
        "O",
        "Ti"
    ],
    "structure": {
        "@module": "pymatgen.core.structure",
        "@class": "Structure",
        "charge": null,
        "lattice": {
            "matrix": [
                [
                    7.13761334,
                    0.0,
                    -0.00035609
                ],
                [
                    0.0,
                    9.99020096,
                    0.0
                ],
                [
                    -6.76577885,
                    0.0,
                    10.06839186
                ]
            ],
            "a": 7.137613348882527,
            "b": 9.99020096,
            "c": 12.130468997265586,
            "alpha": 90.0,
            "beta": 123.90325164939976,
            "gamma": 90.0,
            "volume": 717.914610835835
        },
        "sites": [
            {
                "species": [
                    {
                        "element": "Cs",
                        "occu": 1
                    }
                ],
                "abc": [
                    0.39952861,
                    0.78749532,
                    0.77893475
                ],
                "xyz": [
                    -2.41841952063238,
                    7.867236501859507,
                    7.8424780282284
                ],
                "label": "Cs",
                "properties": {}
            },
            {
                "species": [
                    {
                        "element": "Cs",
                        "occu": 1
                    }
                ],
                "abc": [
                    0.04079673,
                    0.65031492,
                    0.42242845
                ],
                "xyz": [
                    -2.566866188371905,
                    6.496776738086323,
                    4.253160640104832
                ],
                "label": "Cs",
                "properties": {}
            },
            {
                "species": [
                    {
                        "element": "Cs",
                        "occu": 1
                    }
                ],
                "abc": [
                    0.7949946,
                    0.52596824,
                    0.04775335
                ],
                "xyz": [
                    5.351275456741316,
                    5.25452841617751,
                    0.480516350800617
                ],
                "label": "Cs",
                "properties": {}
            },
            {
                "species": [
                    {
                        "element": "Cs",
                        "occu": 1
                    }
                ],
                "abc": [
                    0.2050054,
                    0.02596824,
                    0.45224665
                ],
                "xyz": [
                    -1.5965515417413163,
                    0.25942793617751037,
                    4.553323489199383
                ],
                "label": "Cs",
                "properties": {}
            },
            {
                "species": [
                    {
                        "element": "Cs",
                        "occu": 1
                    }
                ],
                "abc": [
                    0.60047139,
                    0.28749532,
                    0.72106525
                ],
                "xyz": [
                    -0.5926354143676198,
                    2.872136021859507,
                    7.2597536717716
                ],
                "label": "Cs",
                "properties": {}
            },
            {
                "species": [
                    {
                        "element": "Cs",
                        "occu": 1
                    }
                ],
                "abc": [
                    0.95920327,
                    0.15031492,
                    0.07757155
                ],
                "xyz": [
                    6.321590103371904,
                    1.501676258086323,
                    0.7806791998951688
                ],
                "label": "Cs",
                "properties": {}
            },
            {
                "species": [
                    {
                        "element": "Cs",
                        "occu": 1
                    }
                ],
                "abc": [
                    0.04079673,
                    0.84968508,
                    0.92242845
                ],
                "xyz": [
                    -5.949755613371904,
                    8.488524701913676,
                    9.28735657010483
                ],
                "label": "Cs",
                "properties": {}
            },
            {
                "species": [
                    {
                        "element": "Cs",
                        "occu": 1
                    }
                ],
                "abc": [
                    0.39952861,
                    0.71250468,
                    0.27893475
                ],
                "xyz": [
                    0.9644699043676199,
                    7.118064938140492,
                    2.8082820982284002
                ],
                "label": "Cs",
                "properties": {}
            },
            {
                "species": [
                    {
                        "element": "Cs",
                        "occu": 1
                    }
                ],
                "abc": [
                    0.7949946,
                    0.97403176,
                    0.54775335
                ],
                "xyz": [
                    1.968386031741316,
                    9.73077302382249,
                    5.514712280800617
                ],
                "label": "Cs",
                "properties": {}
            },
            {
                "species": [
                    {
                        "element": "Cs",
                        "occu": 1
                    }
                ],
                "abc": [
                    0.2050054,
                    0.47403176,
                    0.95224665
                ],
                "xyz": [
                    -4.979440966741317,
                    4.735672543822489,
                    9.587519419199383
                ],
                "label": "Cs",
                "properties": {}
            },
            {
                "species": [
                    {
                        "element": "Cs",
                        "occu": 1
                    }
                ],
                "abc": [
                    0.95920327,
                    0.34968508,
                    0.57757155
                ],
                "xyz": [
                    2.938700678371904,
                    3.4934242219136764,
                    5.814875129895169
                ],
                "label": "Cs",
                "properties": {}
            },
            {
                "species": [
                    {
                        "element": "Cs",
                        "occu": 1
                    }
                ],
                "abc": [
                    0.60047139,
                    0.21250468,
                    0.22106525
                ],
                "xyz": [
                    2.7902540106323803,
                    2.1229644581404927,
                    2.2255577417716
                ],
                "label": "Cs",
                "properties": {}
            },
            {
                "species": [
                    {
                        "element": "Ti",
                        "occu": 1
                    }
                ],
                "abc": [
                    0.68032462,
                    0.86267238,
                    0.12849192
                ],
                "xyz": [
                    3.9865461685105386,
                    8.618270438841485,
                    1.2934647446098355
                ],
                "label": "Ti",
                "properties": {}
            },
            {
                "species": [
                    {
                        "element": "Ti",
                        "occu": 1
                    }
                ],
                "abc": [
                    0.31967538,
                    0.36267238,
                    0.37150808
                ],
                "xyz": [
                    -0.23182225351053898,
                    3.6231699588414847,
                    3.7403750953901644
                ],
                "label": "Ti",
                "properties": {}
            },
            {
                "species": [
                    {
                        "element": "Ti",
                        "occu": 1
                    }
                ],
                "abc": [
                    0.68032462,
                    0.63732762,
                    0.62849192
                ],
                "xyz": [
                    0.6036567435105384,
                    6.367031001158515,
                    6.327660674609835
                ],
                "label": "Ti",
                "properties": {}
            },
            {
                "species": [
                    {
                        "element": "Ti",
                        "occu": 1
                    }
                ],
                "abc": [
                    0.31967538,
                    0.13732762,
                    0.87150808
                ],
                "xyz": [
                    -3.6147116785105387,
                    1.371930521158515,
                    8.774571025390165
                ],
                "label": "Ti",
                "properties": {}
            },
            {
                "species": [
                    {
                        "element": "O",
                        "occu": 1
                    }
                ],
                "abc": [
                    0.5,
                    0.0,
                    0.0
                ],
                "xyz": [
                    3.56880667,
                    0.0,
                    -0.000178045
                ],
                "label": "O",
                "properties": {}
            },
            {
                "species": [
                    {
                        "element": "O",
                        "occu": 1
                    }
                ],
                "abc": [
                    0.25253455,
                    0.08979235,
                    0.70627048
                ],
                "xyz": [
                    -2.9759759030724515,
                    0.897043621170656,
                    7.110918026762384
                ],
                "label": "O",
                "properties": {}
            },
            {
                "species": [
                    {
                        "element": "O",
                        "occu": 1
                    }
                ],
                "abc": [
                    0.49718202,
                    0.28905378,
                    0.92725998
                ],
                "xyz": [
                    -2.7249429427752765,
                    2.887705350447628,
                    9.33583979319026
                ],
                "label": "O",
                "properties": {}
            },
            {
                "species": [
                    {
                        "element": "O",
                        "occu": 1
                    }
                ],
                "abc": [
                    0.05988628,
                    0.33342839,
                    0.36765231
                ],
                "xyz": [
                    -2.0600091121406683,
                    3.3310166218692543,
                    3.7016462004087516
                ],
                "label": "O",
                "properties": {}
            },
            {
                "species": [
                    {
                        "element": "O",
                        "occu": 1
                    }
                ],
                "abc": [
                    0.94011372,
                    0.83342839,
                    0.13234769
                ],
                "xyz": [
                    5.814733027140668,
                    8.326117101869254,
                    1.3321936395912484
                ],
                "label": "O",
                "properties": {}
            },
            {
                "species": [
                    {
                        "element": "O",
                        "occu": 1
                    }
                ],
                "abc": [
                    0.50281798,
                    0.78905378,
                    0.57274002
                ],
                "xyz": [
                    -0.28611199222472417,
                    7.882805830447628,
                    5.766391906809739
                ],
                "label": "O",
                "properties": {}
            },
            {
                "species": [
                    {
                        "element": "O",
                        "occu": 1
                    }
                ],
                "abc": [
                    0.74746545,
                    0.58979235,
                    0.79372952
                ],
                "xyz": [
                    -0.03507903192754913,
                    5.892144101170655,
                    7.991313673237617
                ],
                "label": "O",
                "properties": {}
            },
            {
                "species": [
                    {
                        "element": "O",
                        "occu": 1
                    }
                ],
                "abc": [
                    0.5,
                    0.5,
                    0.5
                ],
                "xyz": [
                    0.18591724499999973,
                    4.99510048,
                    5.034017885
                ],
                "label": "O",
                "properties": {}
            },
            {
                "species": [
                    {
                        "element": "O",
                        "occu": 1
                    }
                ],
                "abc": [
                    0.25253455,
                    0.41020765,
                    0.20627048
                ],
                "xyz": [
                    0.40691352192754904,
                    4.098056858829343,
                    2.0767220967623836
                ],
                "label": "O",
                "properties": {}
            },
            {
                "species": [
                    {
                        "element": "O",
                        "occu": 1
                    }
                ],
                "abc": [
                    0.49718202,
                    0.21094622,
                    0.42725998
                ],
                "xyz": [
                    0.6579464822247236,
                    2.107395129552371,
                    4.301643863190261
                ],
                "label": "O",
                "properties": {}
            },
            {
                "species": [
                    {
                        "element": "O",
                        "occu": 1
                    }
                ],
                "abc": [
                    0.05988628,
                    0.16657161,
                    0.86765231
                ],
                "xyz": [
                    -5.442898537140668,
                    1.6640838581307456,
                    8.735842130408752
                ],
                "label": "O",
                "properties": {}
            },
            {
                "species": [
                    {
                        "element": "O",
                        "occu": 1
                    }
                ],
                "abc": [
                    0.94011372,
                    0.66657161,
                    0.63234769
                ],
                "xyz": [
                    2.4318436021406677,
                    6.6591843381307445,
                    6.36638956959125
                ],
                "label": "O",
                "properties": {}
            },
            {
                "species": [
                    {
                        "element": "O",
                        "occu": 1
                    }
                ],
                "abc": [
                    0.50281798,
                    0.71094622,
                    0.07274002
                ],
                "xyz": [
                    3.096777432775276,
                    7.102495609552371,
                    0.732195976809739
                ],
                "label": "O",
                "properties": {}
            },
            {
                "species": [
                    {
                        "element": "O",
                        "occu": 1
                    }
                ],
                "abc": [
                    0.74746545,
                    0.91020765,
                    0.29372952
                ],
                "xyz": [
                    3.3478103930724505,
                    9.093157338829343,
                    2.957117743237617
                ],
                "label": "O",
                "properties": {}
            }
        ]
    },
    "spacegroup": {
        "source": "spglib",
        "symbol": "P2_1/c",
        "number": 14,
        "point_group": "2/m",
        "crystal_system": "monoclinic",
        "hall": "-P 2ybc"
    },
    "dielectric": {
        "epsilon_ionic": [
            [
                6.8345192,
                -8e-08,
                -0.46801112
            ],
            [
                -8e-08,
                9.6105377,
                1e-08
            ],
            [
                -0.46801112,
                1e-08,
                7.90058524
            ]
        ],
        "epsilon_ionic_avg": 8.115214046666665,
        "epsilon_ionic_eig": [
            6.658215481310976,
            8.076888958689013,
            9.610537700000004
        ],
        "epsilon_electronic": [
            [
                3.38156144,
                0.0,
                -0.00581845
            ],
            [
                0.0,
                3.31134292,
                0.0
            ],
            [
                -0.00582005,
                0.0,
                3.34613905
            ]
        ],
        "epsilon_electronic_avg": 3.3463478033333334,
        "epsilon_electronic_eig": [
            3.382492940573616,
            3.345207549426384,
            3.31134292
        ]
    },
    "phonon": {
        "lowest_freq": -0.17949927253197404,
        "frequency": [
            -0.17949927253197404,
            -0.14576177553708963,
            -0.07613472068087725,
            0.4382850927733241,
            0.9200057008187322,
            0.9972437087881889,
            1.1203903112150684,
            1.1906269638359428,
            1.2099545440878559,
            1.217395201074399,
            1.293397151175487,
            1.38843347560869,
            1.3926825316752338,
            1.5384846892051411,
            1.5550634113172497,
            1.6347410810152925,
            1.6405858248726894,
            1.647896901648184,
            1.657496491291711,
            1.8552729446294396,
            1.8761667915721822,
            1.8806566141612704,
            1.8956107205106667,
            1.9120736021982292,
            1.9815288543860208,
            2.0491975605964767,
            2.071379106659184,
            2.0847065193185896,
            2.089669011577871,
            2.0966241545507756,
            2.3212156030309026,
            2.3431318464577178,
            2.3445460705154098,
            2.493464317778016,
            2.5551109727663777,
            2.5724747553101954,
            2.639986900122916,
            2.9468336119610283,
            3.0121782597271323,
            3.016238410751809,
            3.0532026316995813,
            3.163275900937843,
            3.1706466460390703,
            3.342709624984744,
            3.482956825303994,
            3.5531874174853524,
            3.5858732182350175,
            3.6816351661312443,
            3.7173686961381844,
            3.77035319845324,
            4.201183259530749,
            4.414875986566163,
            4.628126174358692,
            4.644783798262898,
            5.373569086827892,
            5.7864008912598806,
            5.848202015613314,
            6.192381450675863,
            6.392457551009501,
            6.810604729876347,
            7.60551615434759,
            7.655161992998453,
            7.746456936093805,
            8.02711808978399,
            8.091869286004755,
            8.13570012157914,
            8.389118901156865,
            8.577555907167008,
            8.756631212274565,
            9.063318407150847,
            9.097444397052646,
            9.290733681938839,
            9.485080994073478,
            9.589160089729816,
            12.081646237046474,
            12.396371110070325,
            20.110757287980892,
            20.203548247069076,
            20.85796096087284,
            20.91485239133276,
            20.938423508319133,
            20.95282127624017,
            20.953093052821274,
            21.073130933891484,
            21.193304465992785,
            22.187703907372498,
            22.25331004190305,
            22.330809081425354,
            23.40463041699836,
            23.405225781933204
        ]
    },
    "born_effective_charge": {
        "avg_abs_trace": 1.9491797777777777,
        "tensors": [
            [
                [
                    1.45841,
                    -0.12757,
                    -0.11015
                ],
                [
                    -0.18206,
                    1.22913,
                    0.15851
                ],
                [
                    -0.17137,
                    0.19566,
                    1.31611
                ]
            ],
            [
                [
                    1.50552,
                    -0.15913,
                    -0.03585
                ],
                [
                    -0.1665,
                    1.28342,
                    -0.08928
                ],
                [
                    0.04906,
                    -0.08739,
                    1.24238
                ]
            ],
            [
                [
                    1.26456,
                    -0.10011,
                    0.05246
                ],
                [
                    -0.14697,
                    1.57667,
                    0.01709
                ],
                [
                    0.06899,
                    -0.02128,
                    1.34178
                ]
            ],
            [
                [
                    1.26445,
                    0.10007,
                    0.05252
                ],
                [
                    0.14697,
                    1.57667,
                    -0.01709
                ],
                [
                    0.069,
                    0.02132,
                    1.3417
                ]
            ],
            [
                [
                    1.4584,
                    0.12759,
                    -0.11012
                ],
                [
                    0.18206,
                    1.22913,
                    -0.15851
                ],
                [
                    -0.17143,
                    -0.19569,
                    1.31594
                ]
            ],
            [
                [
                    1.5055,
                    0.15909,
                    -0.03583
                ],
                [
                    0.1665,
                    1.28342,
                    0.08928
                ],
                [
                    0.04901,
                    0.08745,
                    1.24235
                ]
            ],
            [
                [
                    1.50552,
                    0.15913,
                    -0.03585
                ],
                [
                    0.16659,
                    1.28332,
                    0.08929
                ],
                [
                    0.04906,
                    0.08739,
                    1.24238
                ]
            ],
            [
                [
                    1.45841,
                    0.12757,
                    -0.11015
                ],
                [
                    0.18206,
                    1.22911,
                    -0.15848
                ],
                [
                    -0.17137,
                    -0.19566,
                    1.31611
                ]
            ],
            [
                [
                    1.26456,
                    0.10011,
                    0.05246
                ],
                [
                    0.14718,
                    1.57672,
                    -0.01715
                ],
                [
                    0.06899,
                    0.02128,
                    1.34178
                ]
            ],
            [
                [
                    1.26445,
                    -0.10007,
                    0.05252
                ],
                [
                    -0.14718,
                    1.57672,
                    0.01715
                ],
                [
                    0.069,
                    -0.02132,
                    1.3417
                ]
            ],
            [
                [
                    1.5055,
                    -0.15909,
                    -0.03583
                ],
                [
                    -0.16659,
                    1.28332,
                    -0.08929
                ],
                [
                    0.04901,
                    -0.08745,
                    1.24235
                ]
            ],
            [
                [
                    1.4584,
                    -0.12759,
                    -0.11012
                ],
                [
                    -0.18206,
                    1.22911,
                    0.15848
                ],
                [
                    -0.17143,
                    0.19569,
                    1.31594
                ]
            ],
            [
                [
                    3.15686,
                    -0.028,
                    0.09171
                ],
                [
                    -0.03846,
                    3.15185,
                    -0.09859
                ],
                [
                    -0.00313,
                    -0.07938,
                    3.40182
                ]
            ],
            [
                [
                    3.15686,
                    0.02838,
                    0.09101
                ],
                [
                    0.03846,
                    3.15185,
                    0.09859
                ],
                [
                    -0.00332,
                    0.07927,
                    3.40181
                ]
            ],
            [
                [
                    3.15686,
                    0.028,
                    0.09171
                ],
                [
                    0.03891,
                    3.15189,
                    0.09845
                ],
                [
                    -0.00313,
                    0.07938,
                    3.40182
                ]
            ],
            [
                [
                    3.15686,
                    -0.02838,
                    0.09101
                ],
                [
                    -0.03891,
                    3.15189,
                    -0.09845
                ],
                [
                    -0.00332,
                    -0.07927,
                    3.40181
                ]
            ],
            [
                [
                    -1.11262,
                    0.52516,
                    -0.60089
                ],
                [
                    0.48453,
                    -2.92975,
                    1.60156
                ],
                [
                    -0.60944,
                    1.53639,
                    -2.61295
                ]
            ],
            [
                [
                    -1.54844,
                    0.11632,
                    0.5341
                ],
                [
                    0.08774,
                    -1.63966,
                    -0.47219
                ],
                [
                    0.60817,
                    -0.46711,
                    -3.03486
                ]
            ],
            [
                [
                    -1.98212,
                    -0.6406,
                    -0.27924
                ],
                [
                    -0.68774,
                    -2.63462,
                    -0.52275
                ],
                [
                    -0.26172,
                    -0.46624,
                    -1.58529
                ]
            ],
            [
                [
                    -3.2976,
                    -0.33474,
                    0.04735
                ],
                [
                    -0.3501,
                    -1.50185,
                    -0.11412
                ],
                [
                    0.01519,
                    -0.10914,
                    -1.37507
                ]
            ],
            [
                [
                    -3.29876,
                    0.33487,
                    0.04737
                ],
                [
                    0.3501,
                    -1.50185,
                    0.11412
                ],
                [
                    0.01482,
                    0.10919,
                    -1.37491
                ]
            ],
            [
                [
                    -1.98232,
                    0.64131,
                    -0.27947
                ],
                [
                    0.68774,
                    -2.63462,
                    0.52275
                ],
                [
                    -0.2623,
                    0.46682,
                    -1.58567
                ]
            ],
            [
                [
                    -1.54869,
                    -0.11668,
                    0.53503
                ],
                [
                    -0.08774,
                    -1.63966,
                    0.47219
                ],
                [
                    0.60849,
                    0.467,
                    -3.03513
                ]
            ],
            [
                [
                    -1.11262,
                    -0.52516,
                    -0.60089
                ],
                [
                    -0.48453,
                    -2.92975,
                    -1.60156
                ],
                [
                    -0.60944,
                    -1.53639,
                    -2.61295
                ]
            ],
            [
                [
                    -1.54844,
                    -0.11632,
                    0.5341
                ],
                [
                    -0.08753,
                    -1.63953,
                    0.47221
                ],
                [
                    0.60817,
                    0.46711,
                    -3.03486
                ]
            ],
            [
                [
                    -1.98212,
                    0.6406,
                    -0.27924
                ],
                [
                    0.68784,
                    -2.63485,
                    0.52268
                ],
                [
                    -0.26172,
                    0.46624,
                    -1.58529
                ]
            ],
            [
                [
                    -3.2976,
                    0.33474,
                    0.04735
                ],
                [
                    0.35023,
                    -1.50184,
                    0.11446
                ],
                [
                    0.01519,
                    0.10914,
                    -1.37507
                ]
            ],
            [
                [
                    -3.29876,
                    -0.33487,
                    0.04737
                ],
                [
                    -0.35023,
                    -1.50184,
                    -0.11446
                ],
                [
                    0.01482,
                    -0.10919,
                    -1.37491
                ]
            ],
            [
                [
                    -1.98232,
                    -0.64131,
                    -0.27947
                ],
                [
                    -0.68784,
                    -2.63485,
                    -0.52268
                ],
                [
                    -0.2623,
                    -0.46682,
                    -1.58567
                ]
            ],
            [
                [
                    -1.54869,
                    0.11668,
                    0.53503
                ],
                [
                    0.08753,
                    -1.63953,
                    -0.47221
                ],
                [
                    0.60849,
                    -0.467,
                    -3.03513
                ]
            ]
        ]
    },
    "band_gap": 3.4816999999999996,
    "is_direct": true,
    "formula": "Cs6Ti2O7"
}