{
    "mp_id": "mp-753993",
    "nelements": 3,
    "nsites": 28,
    "elements": [
        "Nb",
        "O",
        "V"
    ],
    "structure": {
        "@module": "pymatgen.core.structure",
        "@class": "Structure",
        "charge": null,
        "lattice": {
            "matrix": [
                [
                    12.04306587,
                    0.0,
                    0.0
                ],
                [
                    0.0,
                    5.61543069,
                    0.0
                ],
                [
                    0.0,
                    0.0,
                    7.05527732
                ]
            ],
            "a": 12.04306587,
            "b": 5.61543069,
            "c": 7.05527732,
            "alpha": 90.0,
            "beta": 90.0,
            "gamma": 90.0,
            "volume": 477.12725122957994
        },
        "sites": [
            {
                "species": [
                    {
                        "element": "Nb",
                        "occu": 1
                    }
                ],
                "abc": [
                    0.05924005,
                    0.75,
                    0.84102622
                ],
                "xyz": [
                    0.7134318242920935,
                    4.2115730175,
                    5.933673215491331
                ],
                "label": "Nb",
                "properties": {}
            },
            {
                "species": [
                    {
                        "element": "Nb",
                        "occu": 1
                    }
                ],
                "abc": [
                    0.44075995,
                    0.25,
                    0.34102622
                ],
                "xyz": [
                    5.308101110707907,
                    1.4038576725,
                    2.4060345554913303
                ],
                "label": "Nb",
                "properties": {}
            },
            {
                "species": [
                    {
                        "element": "Nb",
                        "occu": 1
                    }
                ],
                "abc": [
                    0.55924005,
                    0.75,
                    0.65897378
                ],
                "xyz": [
                    6.734964759292093,
                    4.2115730175,
                    4.649242764508669
                ],
                "label": "Nb",
                "properties": {}
            },
            {
                "species": [
                    {
                        "element": "Nb",
                        "occu": 1
                    }
                ],
                "abc": [
                    0.94075995,
                    0.25,
                    0.15897378
                ],
                "xyz": [
                    11.329634045707905,
                    1.4038576725,
                    1.1216041045086698
                ],
                "label": "Nb",
                "properties": {}
            },
            {
                "species": [
                    {
                        "element": "V",
                        "occu": 1
                    }
                ],
                "abc": [
                    0.15432787,
                    0.25,
                    0.52964549
                ],
                "xyz": [
                    1.858580703986797,
                    1.4038576725,
                    3.736795813237287
                ],
                "label": "V",
                "properties": {}
            },
            {
                "species": [
                    {
                        "element": "V",
                        "occu": 1
                    }
                ],
                "abc": [
                    0.34567213,
                    0.75,
                    0.02964549
                ],
                "xyz": [
                    4.162952231013203,
                    4.2115730175,
                    0.2091571532372868
                ],
                "label": "V",
                "properties": {}
            },
            {
                "species": [
                    {
                        "element": "V",
                        "occu": 1
                    }
                ],
                "abc": [
                    0.65432787,
                    0.25,
                    0.97035451
                ],
                "xyz": [
                    7.880113638986797,
                    1.4038576725,
                    6.846120166762713
                ],
                "label": "V",
                "properties": {}
            },
            {
                "species": [
                    {
                        "element": "V",
                        "occu": 1
                    }
                ],
                "abc": [
                    0.84567213,
                    0.75,
                    0.47035451
                ],
                "xyz": [
                    10.184485166013202,
                    4.2115730175,
                    3.3184815067627134
                ],
                "label": "V",
                "properties": {}
            },
            {
                "species": [
                    {
                        "element": "O",
                        "occu": 1
                    }
                ],
                "abc": [
                    0.0,
                    0.0,
                    0.0
                ],
                "xyz": [
                    0.0,
                    0.0,
                    0.0
                ],
                "label": "O",
                "properties": {}
            },
            {
                "species": [
                    {
                        "element": "O",
                        "occu": 1
                    }
                ],
                "abc": [
                    0.0,
                    0.5,
                    0.0
                ],
                "xyz": [
                    0.0,
                    2.807715345,
                    0.0
                ],
                "label": "O",
                "properties": {}
            },
            {
                "species": [
                    {
                        "element": "O",
                        "occu": 1
                    }
                ],
                "abc": [
                    0.07740179,
                    0.25,
                    0.32331399
                ],
                "xyz": [
                    0.9321548554259073,
                    1.4038576725,
                    2.2810698608857067
                ],
                "label": "O",
                "properties": {}
            },
            {
                "species": [
                    {
                        "element": "O",
                        "occu": 1
                    }
                ],
                "abc": [
                    0.12395347,
                    0.00056183,
                    0.65745582
                ],
                "xyz": [
                    1.4927798040250688,
                    0.0031549174245627002,
                    4.638533135748003
                ],
                "label": "O",
                "properties": {}
            },
            {
                "species": [
                    {
                        "element": "O",
                        "occu": 1
                    }
                ],
                "abc": [
                    0.12395347,
                    0.49943817,
                    0.65745582
                ],
                "xyz": [
                    1.4927798040250688,
                    2.8045604275754377,
                    4.638533135748003
                ],
                "label": "O",
                "properties": {}
            },
            {
                "species": [
                    {
                        "element": "O",
                        "occu": 1
                    }
                ],
                "abc": [
                    0.2052192,
                    0.75,
                    0.97247467
                ],
                "xyz": [
                    2.471468343388704,
                    4.2115730175,
                    6.8610784835254846
                ],
                "label": "O",
                "properties": {}
            },
            {
                "species": [
                    {
                        "element": "O",
                        "occu": 1
                    }
                ],
                "abc": [
                    0.2947808,
                    0.25,
                    0.47247467
                ],
                "xyz": [
                    3.550064591611296,
                    1.4038576725,
                    3.3334398235254845
                ],
                "label": "O",
                "properties": {}
            },
            {
                "species": [
                    {
                        "element": "O",
                        "occu": 1
                    }
                ],
                "abc": [
                    0.37604653,
                    0.99943817,
                    0.15745582
                ],
                "xyz": [
                    4.5287531309749305,
                    5.612275772575438,
                    1.1108944757480024
                ],
                "label": "O",
                "properties": {}
            },
            {
                "species": [
                    {
                        "element": "O",
                        "occu": 1
                    }
                ],
                "abc": [
                    0.37604653,
                    0.50056183,
                    0.15745582
                ],
                "xyz": [
                    4.5287531309749305,
                    2.8108702624245625,
                    1.1108944757480024
                ],
                "label": "O",
                "properties": {}
            },
            {
                "species": [
                    {
                        "element": "O",
                        "occu": 1
                    }
                ],
                "abc": [
                    0.42259821,
                    0.75,
                    0.82331399
                ],
                "xyz": [
                    5.089378079574092,
                    4.2115730175,
                    5.808708520885707
                ],
                "label": "O",
                "properties": {}
            },
            {
                "species": [
                    {
                        "element": "O",
                        "occu": 1
                    }
                ],
                "abc": [
                    0.5,
                    0.0,
                    0.5
                ],
                "xyz": [
                    6.021532935,
                    0.0,
                    3.52763866
                ],
                "label": "O",
                "properties": {}
            },
            {
                "species": [
                    {
                        "element": "O",
                        "occu": 1
                    }
                ],
                "abc": [
                    0.5,
                    0.5,
                    0.5
                ],
                "xyz": [
                    6.021532935,
                    2.807715345,
                    3.52763866
                ],
                "label": "O",
                "properties": {}
            },
            {
                "species": [
                    {
                        "element": "O",
                        "occu": 1
                    }
                ],
                "abc": [
                    0.57740179,
                    0.25,
                    0.17668601
                ],
                "xyz": [
                    6.953687790425907,
                    1.4038576725,
                    1.2465687991142933
                ],
                "label": "O",
                "properties": {}
            },
            {
                "species": [
                    {
                        "element": "O",
                        "occu": 1
                    }
                ],
                "abc": [
                    0.62395347,
                    0.00056183,
                    0.84254418
                ],
                "xyz": [
                    7.514312739025069,
                    0.0031549174245627002,
                    5.944382844251997
                ],
                "label": "O",
                "properties": {}
            },
            {
                "species": [
                    {
                        "element": "O",
                        "occu": 1
                    }
                ],
                "abc": [
                    0.62395347,
                    0.49943817,
                    0.84254418
                ],
                "xyz": [
                    7.514312739025069,
                    2.8045604275754377,
                    5.944382844251997
                ],
                "label": "O",
                "properties": {}
            },
            {
                "species": [
                    {
                        "element": "O",
                        "occu": 1
                    }
                ],
                "abc": [
                    0.7052192,
                    0.75,
                    0.52752533
                ],
                "xyz": [
                    8.493001278388704,
                    4.2115730175,
                    3.7218374964745156
                ],
                "label": "O",
                "properties": {}
            },
            {
                "species": [
                    {
                        "element": "O",
                        "occu": 1
                    }
                ],
                "abc": [
                    0.7947808,
                    0.25,
                    0.02752533
                ],
                "xyz": [
                    9.571597526611296,
                    1.4038576725,
                    0.1941988364745156
                ],
                "label": "O",
                "properties": {}
            },
            {
                "species": [
                    {
                        "element": "O",
                        "occu": 1
                    }
                ],
                "abc": [
                    0.87604653,
                    0.50056183,
                    0.34254418
                ],
                "xyz": [
                    10.55028606597493,
                    2.8108702624245625,
                    2.4167441842519977
                ],
                "label": "O",
                "properties": {}
            },
            {
                "species": [
                    {
                        "element": "O",
                        "occu": 1
                    }
                ],
                "abc": [
                    0.87604653,
                    0.99943817,
                    0.34254418
                ],
                "xyz": [
                    10.55028606597493,
                    5.612275772575438,
                    2.4167441842519977
                ],
                "label": "O",
                "properties": {}
            },
            {
                "species": [
                    {
                        "element": "O",
                        "occu": 1
                    }
                ],
                "abc": [
                    0.92259821,
                    0.75,
                    0.67668601
                ],
                "xyz": [
                    11.110911014574093,
                    4.2115730175,
                    4.774207459114293
                ],
                "label": "O",
                "properties": {}
            }
        ]
    },
    "spacegroup": {
        "source": "spglib",
        "symbol": "Pnma",
        "number": 62,
        "point_group": "mmm",
        "crystal_system": "orthorhombic",
        "hall": "-P 2ac 2n"
    },
    "dielectric": {
        "epsilon_ionic": [
            [
                20.83319301,
                3e-08,
                -0.0
            ],
            [
                3e-08,
                41.30412861,
                9e-08
            ],
            [
                -0.0,
                9e-08,
                22.89542729
            ]
        ],
        "epsilon_ionic_avg": 28.34424963666666,
        "epsilon_ionic_eig": [
            20.833193009999988,
            41.30412861,
            22.89542729
        ],
        "epsilon_electronic": [
            [
                5.30587394,
                0.0,
                0.0
            ],
            [
                0.0,
                5.2151808,
                -0.0
            ],
            [
                0.0,
                -0.0,
                5.14447922
            ]
        ],
        "epsilon_electronic_avg": 5.221844653333334,
        "epsilon_electronic_eig": [
            5.30587394,
            5.2151808,
            5.14447922
        ]
    },
    "phonon": {
        "lowest_freq": -0.08526788102188948,
        "frequency": [
            -0.08526788102188948,
            -0.06748941468333945,
            -0.05669907599380901,
            1.348503340798038,
            1.6153053290668324,
            2.0731661477476764,
            2.1122469807587407,
            2.3125945282890243,
            2.8613538353523853,
            2.969419168463222,
            3.0359202023683847,
            3.4529209044614944,
            3.869094177426611,
            3.9070277298499207,
            4.397122382758103,
            4.4566582996504875,
            4.625774794916324,
            4.772282960065363,
            4.776756088679764,
            5.027650041256093,
            5.285238015702801,
            5.28887222209939,
            5.4519420586378144,
            5.645306897541654,
            6.01857488817823,
            6.222935588631752,
            6.384191599495371,
            6.462718196544715,
            6.617360939593192,
            6.937346768872943,
            7.460115414341681,
            7.597346705242274,
            7.624966162163467,
            7.779907219243431,
            7.781538360047158,
            7.801185135446666,
            8.36484343957757,
            8.671705898810886,
            8.743369069791052,
            8.863945117576446,
            8.920499521139943,
            8.94207506780721,
            9.154882060431655,
            9.254050369913614,
            9.49226231545558,
            9.653695670936404,
            9.654261724053963,
            9.911561021234359,
            10.211296207447585,
            10.627485802463895,
            10.806659157126917,
            10.85416640755393,
            10.856911500519878,
            10.889022668578495,
            10.996819681938172,
            10.99810510101927,
            11.035901192312924,
            11.194443092111335,
            11.286025100291836,
            11.365870576642937,
            11.696623618106926,
            12.172811770226685,
            12.281875486894512,
            12.484152358179108,
            16.814643081785007,
            16.82969644955498,
            19.75347462532059,
            19.780399279730727,
            21.110896592745853,
            21.24630902566155,
            21.46623686455648,
            22.304181754190445,
            22.6075779631346,
            22.691845287941987,
            22.825469813928038,
            23.065712309727324,
            23.109763953552665,
            27.476093548710992,
            27.652380479291203,
            28.063170117627322,
            28.708621387928893,
            30.256245392826838,
            30.301772420594684,
            30.615370429805107
        ]
    },
    "born_effective_charge": {
        "avg_abs_trace": 4.296400952380952,
        "tensors": [
            [
                [
                    9.37156,
                    0.0,
                    0.30308
                ],
                [
                    0.00076,
                    10.16578,
                    -0.00123
                ],
                [
                    -0.05427,
                    -0.0,
                    9.64838
                ]
            ],
            [
                [
                    9.37159,
                    0.0,
                    -0.30292
                ],
                [
                    -0.00076,
                    10.16578,
                    -0.00123
                ],
                [
                    0.05427,
                    -0.0,
                    9.64838
                ]
            ],
            [
                [
                    9.37156,
                    -0.0,
                    -0.30308
                ],
                [
                    0.00076,
                    10.16578,
                    0.00123
                ],
                [
                    0.05419,
                    -0.0,
                    9.64881
                ]
            ],
            [
                [
                    9.37159,
                    -0.0,
                    0.30292
                ],
                [
                    -0.00076,
                    10.16578,
                    0.00123
                ],
                [
                    -0.05419,
                    -0.0,
                    9.64881
                ]
            ],
            [
                [
                    5.80162,
                    -0.0,
                    0.21752
                ],
                [
                    0.00049,
                    4.98007,
                    -0.00148
                ],
                [
                    -0.6154,
                    -0.0,
                    5.14466
                ]
            ],
            [
                [
                    5.80127,
                    0.0,
                    -0.2176
                ],
                [
                    -0.00049,
                    4.98007,
                    -0.00148
                ],
                [
                    0.6154,
                    -0.0,
                    5.14466
                ]
            ],
            [
                [
                    5.80162,
                    0.0,
                    -0.21752
                ],
                [
                    0.00049,
                    4.98007,
                    0.00148
                ],
                [
                    0.61563,
                    -0.0,
                    5.14482
                ]
            ],
            [
                [
                    5.80127,
                    0.0,
                    0.2176
                ],
                [
                    -0.00049,
                    4.98007,
                    0.00148
                ],
                [
                    -0.61563,
                    -0.0,
                    5.14482
                ]
            ],
            [
                [
                    -2.18978,
                    1.86179,
                    1.46235
                ],
                [
                    1.85135,
                    -5.09328,
                    -2.95114
                ],
                [
                    1.49956,
                    -2.93536,
                    -3.63631
                ]
            ],
            [
                [
                    -2.18978,
                    -1.86179,
                    1.46235
                ],
                [
                    -1.85135,
                    -5.09328,
                    2.95114
                ],
                [
                    1.49956,
                    2.93536,
                    -3.63631
                ]
            ],
            [
                [
                    -3.53169,
                    0.0,
                    -2.98058
                ],
                [
                    0.00016,
                    -0.7967,
                    0.00017
                ],
                [
                    -2.90988,
                    -0.0,
                    -3.98774
                ]
            ],
            [
                [
                    -1.24877,
                    -1.10866,
                    0.794
                ],
                [
                    -1.30433,
                    -4.23336,
                    2.61515
                ],
                [
                    0.98369,
                    2.56438,
                    -2.75834
                ]
            ],
            [
                [
                    -1.24877,
                    1.10866,
                    0.794
                ],
                [
                    1.30333,
                    -4.23463,
                    -2.61281
                ],
                [
                    0.98369,
                    -2.56438,
                    -2.75834
                ]
            ],
            [
                [
                    -6.95402,
                    0.0,
                    -2.17912
                ],
                [
                    0.00015,
                    -0.78788,
                    1e-05
                ],
                [
                    -2.25493,
                    -0.0,
                    -1.65247
                ]
            ],
            [
                [
                    -6.95429,
                    -0.0,
                    2.17915
                ],
                [
                    -0.00015,
                    -0.78788,
                    1e-05
                ],
                [
                    2.25493,
                    -0.0,
                    -1.65247
                ]
            ],
            [
                [
                    -1.24873,
                    -1.10886,
                    -0.79407
                ],
                [
                    -1.30333,
                    -4.23463,
                    -2.61281
                ],
                [
                    -0.98369,
                    -2.56438,
                    -2.75834
                ]
            ],
            [
                [
                    -1.24873,
                    1.10886,
                    -0.79407
                ],
                [
                    1.30433,
                    -4.23336,
                    2.61515
                ],
                [
                    -0.98369,
                    2.56438,
                    -2.75834
                ]
            ],
            [
                [
                    -3.53148,
                    0.0,
                    2.98074
                ],
                [
                    -0.00016,
                    -0.7967,
                    0.00017
                ],
                [
                    2.90988,
                    -0.0,
                    -3.98774
                ]
            ],
            [
                [
                    -2.18978,
                    1.86179,
                    -1.46235
                ],
                [
                    1.85135,
                    -5.09328,
                    2.95114
                ],
                [
                    -1.49956,
                    2.93536,
                    -3.63631
                ]
            ],
            [
                [
                    -2.18978,
                    -1.86179,
                    -1.46235
                ],
                [
                    -1.85135,
                    -5.09328,
                    -2.95114
                ],
                [
                    -1.49956,
                    -2.93536,
                    -3.63631
                ]
            ],
            [
                [
                    -3.53169,
                    0.0,
                    2.98058
                ],
                [
                    0.00016,
                    -0.7967,
                    -0.00017
                ],
                [
                    2.90996,
                    -0.0,
                    -3.98753
                ]
            ],
            [
                [
                    -1.24877,
                    -1.10866,
                    -0.794
                ],
                [
                    -1.30433,
                    -4.23336,
                    -2.61515
                ],
                [
                    -0.98368,
                    -2.56439,
                    -2.75863
                ]
            ],
            [
                [
                    -1.24877,
                    1.10866,
                    -0.794
                ],
                [
                    1.30333,
                    -4.23463,
                    2.61281
                ],
                [
                    -0.98368,
                    2.56439,
                    -2.75863
                ]
            ],
            [
                [
                    -6.95402,
                    -0.0,
                    2.17912
                ],
                [
                    0.00015,
                    -0.78788,
                    -1e-05
                ],
                [
                    2.25527,
                    -0.0,
                    -1.65239
                ]
            ],
            [
                [
                    -6.95429,
                    0.0,
                    -2.17915
                ],
                [
                    -0.00015,
                    -0.78788,
                    -1e-05
                ],
                [
                    -2.25527,
                    -0.0,
                    -1.65239
                ]
            ],
            [
                [
                    -1.24873,
                    1.10886,
                    0.79407
                ],
                [
                    1.30433,
                    -4.23336,
                    -2.61515
                ],
                [
                    0.98368,
                    -2.56439,
                    -2.75863
                ]
            ],
            [
                [
                    -1.24873,
                    -1.10886,
                    0.79407
                ],
                [
                    -1.30333,
                    -4.23463,
                    2.61281
                ],
                [
                    0.98368,
                    2.56439,
                    -2.75863
                ]
            ],
            [
                [
                    -3.53148,
                    0.0,
                    -2.98074
                ],
                [
                    -0.00016,
                    -0.7967,
                    -0.00017
                ],
                [
                    -2.90996,
                    -0.0,
                    -3.98753
                ]
            ]
        ]
    },
    "band_gap": 2.0529,
    "is_direct": false,
    "formula": "NbVO5"
}