{
    "mp_id": "mp-7621",
    "nelements": 3,
    "nsites": 12,
    "elements": [
        "K",
        "O",
        "Tc"
    ],
    "structure": {
        "@module": "pymatgen.core.structure",
        "@class": "Structure",
        "charge": null,
        "lattice": {
            "matrix": [
                [
                    -2.83112702,
                    2.83112701,
                    6.3625976
                ],
                [
                    2.83112702,
                    -2.83112701,
                    6.3625976
                ],
                [
                    2.83112701,
                    2.83112702,
                    -6.3625976
                ]
            ],
            "a": 7.517526758825097,
            "b": 7.517526758825097,
            "c": 7.517526758825097,
            "alpha": 135.7530906222168,
            "beta": 135.7530906222168,
            "gamma": 64.36229279827354,
            "volume": 203.99200962072882
        },
        "sites": [
            {
                "species": [
                    {
                        "element": "K",
                        "occu": 1
                    }
                ],
                "abc": [
                    0.5,
                    0.5,
                    0.0
                ],
                "xyz": [
                    0.0,
                    0.0,
                    6.3625976
                ],
                "label": "K",
                "properties": {}
            },
            {
                "species": [
                    {
                        "element": "K",
                        "occu": 1
                    }
                ],
                "abc": [
                    0.25,
                    0.75,
                    0.5
                ],
                "xyz": [
                    2.831127015,
                    4.99999974756804e-09,
                    3.1812988
                ],
                "label": "K",
                "properties": {}
            },
            {
                "species": [
                    {
                        "element": "Tc",
                        "occu": 1
                    }
                ],
                "abc": [
                    0.0,
                    0.0,
                    0.0
                ],
                "xyz": [
                    0.0,
                    0.0,
                    0.0
                ],
                "label": "Tc",
                "properties": {}
            },
            {
                "species": [
                    {
                        "element": "Tc",
                        "occu": 1
                    }
                ],
                "abc": [
                    0.75,
                    0.25,
                    0.5
                ],
                "xyz": [
                    -4.99999974756804e-09,
                    2.831127015,
                    3.1812988
                ],
                "label": "Tc",
                "properties": {}
            },
            {
                "species": [
                    {
                        "element": "O",
                        "occu": 1
                    }
                ],
                "abc": [
                    0.70622548,
                    0.03942194,
                    0.89784116
                ],
                "xyz": [
                    0.6540968396400813,
                    4.429707880201758,
                    -0.9683475248590243
                ],
                "label": "O",
                "properties": {}
            },
            {
                "species": [
                    {
                        "element": "O",
                        "occu": 1
                    }
                ],
                "abc": [
                    0.78942194,
                    0.39158078,
                    0.83319746
                ],
                "xyz": [
                    1.2325489759252508,
                    3.4852266957671003,
                    2.212944912543377
                ],
                "label": "O",
                "properties": {}
            },
            {
                "species": [
                    {
                        "element": "O",
                        "occu": 1
                    }
                ],
                "abc": [
                    0.55838432,
                    0.95622548,
                    0.16680254
                ],
                "xyz": [
                    1.5985780340747482,
                    -0.6540996757671003,
                    8.575555237738575
                ],
                "label": "O",
                "properties": {}
            },
            {
                "species": [
                    {
                        "element": "O",
                        "occu": 1
                    }
                ],
                "abc": [
                    0.14158078,
                    0.80838432,
                    0.10215884
                ],
                "xyz": [
                    2.1770301703599193,
                    -1.5985808602017586,
                    5.3942500751409765
                ],
                "label": "O",
                "properties": {}
            },
            {
                "species": [
                    {
                        "element": "O",
                        "occu": 1
                    }
                ],
                "abc": [
                    0.60841922,
                    0.44161568,
                    0.39784116
                ],
                "xyz": [
                    0.654096844640081,
                    1.5985808652017586,
                    4.149646324859024
                ],
                "label": "O",
                "properties": {}
            },
            {
                "species": [
                    {
                        "element": "O",
                        "occu": 1
                    }
                ],
                "abc": [
                    0.19161568,
                    0.29377452,
                    0.33319746
                ],
                "xyz": [
                    1.2325489809252512,
                    0.6540996807671008,
                    0.9683411622614244
                ],
                "label": "O",
                "properties": {}
            },
            {
                "species": [
                    {
                        "element": "O",
                        "occu": 1
                    }
                ],
                "abc": [
                    0.96057806,
                    0.85841922,
                    0.66680254
                ],
                "xyz": [
                    1.5985780290747487,
                    2.1770273392328994,
                    7.330951487456624
                ],
                "label": "O",
                "properties": {}
            },
            {
                "species": [
                    {
                        "element": "O",
                        "occu": 1
                    }
                ],
                "abc": [
                    0.04377452,
                    0.21057806,
                    0.60215884
                ],
                "xyz": [
                    2.177030165359919,
                    1.2325461547982413,
                    -2.2129512751409757
                ],
                "label": "O",
                "properties": {}
            }
        ]
    },
    "spacegroup": {
        "source": "spglib",
        "symbol": "I4_1/a",
        "number": 88,
        "point_group": "4/m",
        "crystal_system": "tetragonal",
        "hall": "I 4bw -1bw"
    },
    "dielectric": {
        "epsilon_ionic": [
            [
                3.34474048,
                -0.00098242,
                1e-08
            ],
            [
                -0.00098242,
                3.34351616,
                -0.0
            ],
            [
                1e-08,
                -0.0,
                2.23768633
            ]
        ],
        "epsilon_ionic_avg": 2.975314323333333,
        "epsilon_ionic_eig": [
            3.345285855710896,
            3.3429707842891045,
            2.2376863299999994
        ],
        "epsilon_electronic": [
            [
                2.69275026,
                -1.093e-05,
                0.0
            ],
            [
                1.093e-05,
                2.69275026,
                0.0
            ],
            [
                0.0,
                0.0,
                2.82641279
            ]
        ],
        "epsilon_electronic_avg": 2.737304436666667,
        "epsilon_electronic_eig": [
            2.69275026,
            2.69275026,
            2.82641279
        ]
    },
    "phonon": {
        "lowest_freq": -0.03237993365429728,
        "frequency": [
            -0.03237993365429728,
            -0.03237993365429728,
            -0.016395748476815488,
            1.9530070885021078,
            2.175414407170649,
            2.175414407170649,
            2.4249273869799355,
            2.4249273869799355,
            3.013123908974987,
            3.013123908974987,
            3.3134365628799496,
            3.587977467444942,
            3.587977467444942,
            3.7042061718832944,
            4.088924689015851,
            4.172228756286974,
            4.172228756286974,
            4.214157784197734,
            9.355196287190077,
            9.863694722052518,
            9.878455352743515,
            9.878455352743515,
            9.896575243144973,
            10.387606563592488,
            10.3901742035578,
            10.623215922383318,
            10.693163723209508,
            10.693163723209508,
            25.054436355252165,
            25.138714098738255,
            25.138714098738255,
            25.51762584135902,
            25.51762584135902,
            26.208388605352773,
            26.257577645490308,
            26.307095005960097
        ]
    },
    "born_effective_charge": {
        "avg_abs_trace": 1.5023766666666667,
        "tensors": [
            [
                [
                    1.41539,
                    -0.05551,
                    -4e-05
                ],
                [
                    0.0555,
                    1.41548,
                    -5e-05
                ],
                [
                    0.0,
                    -0.0,
                    1.30949
                ]
            ],
            [
                [
                    1.41539,
                    -0.05551,
                    4e-05
                ],
                [
                    0.0555,
                    1.41548,
                    5e-05
                ],
                [
                    0.0,
                    -0.0,
                    1.30949
                ]
            ],
            [
                [
                    2.95088,
                    0.15146,
                    -0.00074
                ],
                [
                    -0.15052,
                    2.94765,
                    -0.00138
                ],
                [
                    0.0,
                    -0.0,
                    3.4825
                ]
            ],
            [
                [
                    2.95088,
                    0.15146,
                    0.00074
                ],
                [
                    -0.15052,
                    2.94765,
                    0.00138
                ],
                [
                    0.0,
                    -0.0,
                    3.4825
                ]
            ],
            [
                [
                    -0.80425,
                    0.47731,
                    0.44043
                ],
                [
                    0.52339,
                    -1.37538,
                    -0.64709
                ],
                [
                    0.41269,
                    -0.74594,
                    -1.19795
                ]
            ],
            [
                [
                    -1.37883,
                    -0.52514,
                    0.6493
                ],
                [
                    -0.47536,
                    -0.80437,
                    0.43987
                ],
                [
                    0.74594,
                    0.41269,
                    -1.19795
                ]
            ],
            [
                [
                    -1.37886,
                    -0.52475,
                    -0.64868
                ],
                [
                    -0.47778,
                    -0.80542,
                    -0.44094
                ],
                [
                    -0.74594,
                    -0.41269,
                    -1.19795
                ]
            ],
            [
                [
                    -0.80434,
                    0.47663,
                    -0.44015
                ],
                [
                    0.52477,
                    -1.37796,
                    0.64841
                ],
                [
                    -0.41269,
                    0.74594,
                    -1.19795
                ]
            ],
            [
                [
                    -0.80425,
                    0.47731,
                    -0.44043
                ],
                [
                    0.52339,
                    -1.37538,
                    0.64709
                ],
                [
                    -0.41267,
                    0.74592,
                    -1.19804
                ]
            ],
            [
                [
                    -1.37883,
                    -0.52514,
                    -0.6493
                ],
                [
                    -0.47536,
                    -0.80437,
                    -0.43987
                ],
                [
                    -0.74592,
                    -0.41267,
                    -1.19804
                ]
            ],
            [
                [
                    -1.37886,
                    -0.52475,
                    0.64868
                ],
                [
                    -0.47778,
                    -0.80542,
                    0.44094
                ],
                [
                    0.74592,
                    0.41267,
                    -1.19804
                ]
            ],
            [
                [
                    -0.80434,
                    0.47663,
                    0.44015
                ],
                [
                    0.52477,
                    -1.37796,
                    -0.64841
                ],
                [
                    0.41267,
                    -0.74592,
                    -1.19804
                ]
            ]
        ]
    },
    "band_gap": 3.6897,
    "is_direct": false,
    "formula": "KTcO4"
}