{
    "mp_id": "mp-7148",
    "nelements": 4,
    "nsites": 12,
    "elements": [
        "K",
        "O",
        "Sr",
        "Ta"
    ],
    "structure": {
        "@module": "pymatgen.core.structure",
        "@class": "Structure",
        "charge": null,
        "lattice": {
            "matrix": [
                [
                    -1.99900972,
                    1.99900972,
                    10.90622254
                ],
                [
                    1.99900972,
                    -1.99900972,
                    10.90622254
                ],
                [
                    1.99900972,
                    1.99900972,
                    -10.90622254
                ]
            ],
            "a": 11.266666313214083,
            "b": 11.266666313214083,
            "c": 11.266666313214083,
            "alpha": 159.56016008147802,
            "beta": 159.56016008147802,
            "gamma": 29.06386422525282,
            "volume": 174.32679999603334
        },
        "sites": [
            {
                "species": [
                    {
                        "element": "K",
                        "occu": 1
                    }
                ],
                "abc": [
                    0.80664318,
                    0.80664318,
                    0.0
                ],
                "xyz": [
                    0.0,
                    0.0,
                    17.594860062906555
                ],
                "label": "K",
                "properties": {}
            },
            {
                "species": [
                    {
                        "element": "K",
                        "occu": 1
                    }
                ],
                "abc": [
                    0.19335682,
                    0.19335682,
                    0.0
                ],
                "xyz": [
                    0.0,
                    0.0,
                    4.2175850170934455
                ],
                "label": "K",
                "properties": {}
            },
            {
                "species": [
                    {
                        "element": "Sr",
                        "occu": 1
                    }
                ],
                "abc": [
                    0.0,
                    0.0,
                    0.0
                ],
                "xyz": [
                    0.0,
                    0.0,
                    0.0
                ],
                "label": "Sr",
                "properties": {}
            },
            {
                "species": [
                    {
                        "element": "Ta",
                        "occu": 1
                    }
                ],
                "abc": [
                    0.59574655,
                    0.59574655,
                    0.0
                ],
                "xyz": [
                    0.0,
                    0.0,
                    12.994688903474474
                ],
                "label": "Ta",
                "properties": {}
            },
            {
                "species": [
                    {
                        "element": "Ta",
                        "occu": 1
                    }
                ],
                "abc": [
                    0.40425345,
                    0.40425345,
                    0.0
                ],
                "xyz": [
                    0.0,
                    0.0,
                    8.817756176525526
                ],
                "label": "Ta",
                "properties": {}
            },
            {
                "species": [
                    {
                        "element": "O",
                        "occu": 1
                    }
                ],
                "abc": [
                    0.5,
                    0.5,
                    0.0
                ],
                "xyz": [
                    0.0,
                    0.0,
                    10.90622254
                ],
                "label": "O",
                "properties": {}
            },
            {
                "species": [
                    {
                        "element": "O",
                        "occu": 1
                    }
                ],
                "abc": [
                    0.31857599,
                    0.31857599,
                    0.0
                ],
                "xyz": [
                    0.0,
                    0.0,
                    6.948921285681629
                ],
                "label": "O",
                "properties": {}
            },
            {
                "species": [
                    {
                        "element": "O",
                        "occu": 1
                    }
                ],
                "abc": [
                    0.68142401,
                    0.68142401,
                    0.0
                ],
                "xyz": [
                    0.0,
                    0.0,
                    14.86352379431837
                ],
                "label": "O",
                "properties": {}
            },
            {
                "species": [
                    {
                        "element": "O",
                        "occu": 1
                    }
                ],
                "abc": [
                    0.91321495,
                    0.41321495,
                    0.5
                ],
                "xyz": [
                    1.1102230246251565e-16,
                    1.99900972,
                    9.013228403109945
                ],
                "label": "O",
                "properties": {}
            },
            {
                "species": [
                    {
                        "element": "O",
                        "occu": 1
                    }
                ],
                "abc": [
                    0.41321495,
                    0.91321495,
                    0.5
                ],
                "xyz": [
                    1.99900972,
                    1.1102230246251565e-16,
                    9.013228403109945
                ],
                "label": "O",
                "properties": {}
            },
            {
                "species": [
                    {
                        "element": "O",
                        "occu": 1
                    }
                ],
                "abc": [
                    0.58678505,
                    0.08678505,
                    0.5
                ],
                "xyz": [
                    -1.1102230246251565e-16,
                    1.99900972,
                    1.8929941368900547
                ],
                "label": "O",
                "properties": {}
            },
            {
                "species": [
                    {
                        "element": "O",
                        "occu": 1
                    }
                ],
                "abc": [
                    0.08678505,
                    0.58678505,
                    0.5
                ],
                "xyz": [
                    1.99900972,
                    -1.1102230246251565e-16,
                    1.8929941368900547
                ],
                "label": "O",
                "properties": {}
            }
        ]
    },
    "spacegroup": {
        "source": "spglib",
        "symbol": "I4/mmm",
        "number": 139,
        "point_group": "4/mmm",
        "crystal_system": "tetragonal",
        "hall": "-I 4 2"
    },
    "dielectric": {
        "epsilon_ionic": [
            [
                26.25538754,
                -0.0,
                -0.0
            ],
            [
                -0.0,
                26.25518896,
                7e-08
            ],
            [
                -0.0,
                7e-08,
                7.37997778
            ]
        ],
        "epsilon_ionic_avg": 19.963518093333334,
        "epsilon_ionic_eig": [
            7.379977780000001,
            26.25518896,
            26.25538754
        ],
        "epsilon_electronic": [
            [
                4.1087931,
                0.0,
                0.0
            ],
            [
                0.0,
                4.1087931,
                -0.0
            ],
            [
                0.0,
                0.0,
                3.72315615
            ]
        ],
        "epsilon_electronic_avg": 3.98024745,
        "epsilon_electronic_eig": [
            4.1087931,
            4.1087931,
            3.72315615
        ]
    },
    "phonon": {
        "lowest_freq": -0.10705269816397231,
        "frequency": [
            -0.10705269816397231,
            -0.010519241638211588,
            -0.010519241638211588,
            2.1752738571951826,
            2.1752738571951826,
            2.836053073172569,
            2.836053073172569,
            3.5254834626022533,
            3.5254834626022533,
            3.8750508898286946,
            3.8750508898286946,
            4.129663128285975,
            4.182225731255957,
            4.633379904224235,
            4.811621600677567,
            6.169670819687595,
            6.169670819687595,
            6.678404625035373,
            6.678404625035373,
            6.864059238474391,
            6.864059238474391,
            7.2917353236113565,
            7.2917353236113565,
            8.48595274764437,
            8.48595274764437,
            8.541913912236708,
            9.213338362971538,
            11.438162004495213,
            12.602014409980745,
            17.828781290045686,
            18.082466548984907,
            18.082466548984907,
            18.40383944302156,
            18.40383944302156,
            22.36736293964208,
            22.788968259559446
        ]
    },
    "born_effective_charge": {
        "avg_abs_trace": 3.022113888888889,
        "tensors": [
            [
                [
                    1.13955,
                    -0.0,
                    -1e-05
                ],
                [
                    0.0,
                    1.13955,
                    3e-05
                ],
                [
                    0.0,
                    0.0,
                    1.5058
                ]
            ],
            [
                [
                    1.13955,
                    -0.0,
                    1e-05
                ],
                [
                    0.0,
                    1.13955,
                    -3e-05
                ],
                [
                    -0.0,
                    -0.0,
                    1.50589
                ]
            ],
            [
                [
                    2.5618,
                    -0.0,
                    -0.0
                ],
                [
                    -0.0,
                    2.56175,
                    0.0
                ],
                [
                    -0.0,
                    -0.0,
                    1.87177
                ]
            ],
            [
                [
                    7.2431,
                    0.0,
                    2e-05
                ],
                [
                    -0.0,
                    7.2431,
                    0.00022
                ],
                [
                    -0.0,
                    -0.0,
                    5.43006
                ]
            ],
            [
                [
                    7.2431,
                    -0.0,
                    -2e-05
                ],
                [
                    -0.0,
                    7.2431,
                    -0.00022
                ],
                [
                    0.0,
                    0.0,
                    5.43038
                ]
            ],
            [
                [
                    -2.00867,
                    -0.0,
                    -0.0
                ],
                [
                    -0.0,
                    -2.00865,
                    0.0
                ],
                [
                    -0.0,
                    -0.0,
                    -3.85338
                ]
            ],
            [
                [
                    -1.46853,
                    0.0,
                    -2e-05
                ],
                [
                    -0.0,
                    -1.46852,
                    0.00016
                ],
                [
                    -0.0,
                    -0.0,
                    -3.54393
                ]
            ],
            [
                [
                    -1.46853,
                    -0.0,
                    2e-05
                ],
                [
                    0.0,
                    -1.46852,
                    -0.00016
                ],
                [
                    -0.0,
                    -0.0,
                    -3.5452
                ]
            ],
            [
                [
                    -1.69254,
                    -0.0,
                    0.0
                ],
                [
                    0.0,
                    -5.49815,
                    0.00042
                ],
                [
                    -0.0,
                    0.0,
                    -1.20004
                ]
            ],
            [
                [
                    -5.49814,
                    0.0,
                    1e-05
                ],
                [
                    0.0,
                    -1.69254,
                    -5e-05
                ],
                [
                    0.0,
                    -0.0,
                    -1.20004
                ]
            ],
            [
                [
                    -5.49814,
                    -0.0,
                    -1e-05
                ],
                [
                    -0.0,
                    -1.69254,
                    5e-05
                ],
                [
                    0.0,
                    -0.0,
                    -1.20065
                ]
            ],
            [
                [
                    -1.69254,
                    0.0,
                    -0.0
                ],
                [
                    -0.0,
                    -5.49815,
                    -0.00042
                ],
                [
                    -0.0,
                    0.0,
                    -1.20065
                ]
            ]
        ]
    },
    "band_gap": 2.5307,
    "is_direct": false,
    "formula": "K2SrTa2O7"
}