{
    "mp_id": "mp-756044",
    "nelements": 3,
    "nsites": 16,
    "elements": [
        "As",
        "Na",
        "O"
    ],
    "structure": {
        "@module": "pymatgen.core.structure",
        "@class": "Structure",
        "charge": null,
        "lattice": {
            "matrix": [
                [
                    6.98189496,
                    0.0,
                    0.0
                ],
                [
                    0.0,
                    6.01354774,
                    0.0
                ],
                [
                    0.0,
                    0.0,
                    5.52018327
                ]
            ],
            "a": 6.98189496,
            "b": 6.01354774,
            "c": 5.52018327,
            "alpha": 90.0,
            "beta": 90.0,
            "gamma": 90.0,
            "volume": 231.77018655673535
        },
        "sites": [
            {
                "species": [
                    {
                        "element": "Na",
                        "occu": 1
                    }
                ],
                "abc": [
                    0.0,
                    0.15250282,
                    0.49166482
                ],
                "xyz": [
                    0.0,
                    0.9170829885546269,
                    2.7140799138115614
                ],
                "label": "Na",
                "properties": {}
            },
            {
                "species": [
                    {
                        "element": "Na",
                        "occu": 1
                    }
                ],
                "abc": [
                    0.24488508,
                    0.32429977,
                    0.9937044
                ],
                "xyz": [
                    1.7097619058311968,
                    1.9501921489660197,
                    5.485430404205388
                ],
                "label": "Na",
                "properties": {}
            },
            {
                "species": [
                    {
                        "element": "Na",
                        "occu": 1
                    }
                ],
                "abc": [
                    0.25511492,
                    0.67570023,
                    0.4937044
                ],
                "xyz": [
                    1.7811855741688034,
                    4.0633555910339805,
                    2.725338769205388
                ],
                "label": "Na",
                "properties": {}
            },
            {
                "species": [
                    {
                        "element": "Na",
                        "occu": 1
                    }
                ],
                "abc": [
                    0.5,
                    0.84749718,
                    0.99166482
                ],
                "xyz": [
                    3.49094748,
                    5.096464751445373,
                    5.474171548811562
                ],
                "label": "Na",
                "properties": {}
            },
            {
                "species": [
                    {
                        "element": "Na",
                        "occu": 1
                    }
                ],
                "abc": [
                    0.74488508,
                    0.67570023,
                    0.4937044
                ],
                "xyz": [
                    5.200709385831197,
                    4.0633555910339805,
                    2.725338769205388
                ],
                "label": "Na",
                "properties": {}
            },
            {
                "species": [
                    {
                        "element": "Na",
                        "occu": 1
                    }
                ],
                "abc": [
                    0.75511492,
                    0.32429977,
                    0.9937044
                ],
                "xyz": [
                    5.272133054168803,
                    1.9501921489660197,
                    5.485430404205388
                ],
                "label": "Na",
                "properties": {}
            },
            {
                "species": [
                    {
                        "element": "As",
                        "occu": 1
                    }
                ],
                "abc": [
                    0.0,
                    0.82268383,
                    0.00255246
                ],
                "xyz": [
                    0.0,
                    4.947248486631044,
                    0.0140900469893442
                ],
                "label": "As",
                "properties": {}
            },
            {
                "species": [
                    {
                        "element": "As",
                        "occu": 1
                    }
                ],
                "abc": [
                    0.5,
                    0.17731617,
                    0.50255246
                ],
                "xyz": [
                    3.49094748,
                    1.0662992533689557,
                    2.774181681989344
                ],
                "label": "As",
                "properties": {}
            },
            {
                "species": [
                    {
                        "element": "O",
                        "occu": 1
                    }
                ],
                "abc": [
                    0.0,
                    0.09362041,
                    0.90393907
                ],
                "xyz": [
                    0.0,
                    0.5629908049733734,
                    4.989909331313359
                ],
                "label": "O",
                "properties": {}
            },
            {
                "species": [
                    {
                        "element": "O",
                        "occu": 1
                    }
                ],
                "abc": [
                    0.0,
                    0.81692224,
                    0.31262075
                ],
                "xyz": [
                    0.0,
                    4.912600890107738,
                    1.7257238340048526
                ],
                "label": "O",
                "properties": {}
            },
            {
                "species": [
                    {
                        "element": "O",
                        "occu": 1
                    }
                ],
                "abc": [
                    0.29759634,
                    0.31174908,
                    0.40105155
                ],
                "xyz": [
                    2.0777863863604464,
                    1.8747179754810792,
                    2.2138780567175687
                ],
                "label": "O",
                "properties": {}
            },
            {
                "species": [
                    {
                        "element": "O",
                        "occu": 1
                    }
                ],
                "abc": [
                    0.20240366,
                    0.68825092,
                    0.90105155
                ],
                "xyz": [
                    1.4131610936395538,
                    4.1388297645189205,
                    4.973969691717569
                ],
                "label": "O",
                "properties": {}
            },
            {
                "species": [
                    {
                        "element": "O",
                        "occu": 1
                    }
                ],
                "abc": [
                    0.5,
                    0.18307776,
                    0.81262075
                ],
                "xyz": [
                    3.49094748,
                    1.1009468498922623,
                    4.485815469004853
                ],
                "label": "O",
                "properties": {}
            },
            {
                "species": [
                    {
                        "element": "O",
                        "occu": 1
                    }
                ],
                "abc": [
                    0.5,
                    0.90637959,
                    0.40393907
                ],
                "xyz": [
                    3.49094748,
                    5.4505569350266265,
                    2.229817696313359
                ],
                "label": "O",
                "properties": {}
            },
            {
                "species": [
                    {
                        "element": "O",
                        "occu": 1
                    }
                ],
                "abc": [
                    0.79759634,
                    0.68825092,
                    0.90105155
                ],
                "xyz": [
                    5.568733866360446,
                    4.1388297645189205,
                    4.973969691717569
                ],
                "label": "O",
                "properties": {}
            },
            {
                "species": [
                    {
                        "element": "O",
                        "occu": 1
                    }
                ],
                "abc": [
                    0.70240366,
                    0.31174908,
                    0.40105155
                ],
                "xyz": [
                    4.9041085736395535,
                    1.8747179754810792,
                    2.2138780567175687
                ],
                "label": "O",
                "properties": {}
            }
        ]
    },
    "spacegroup": {
        "source": "spglib",
        "symbol": "Pmn2_1",
        "number": 31,
        "point_group": "mm2",
        "crystal_system": "orthorhombic",
        "hall": "P 2ac -2"
    },
    "dielectric": {
        "epsilon_ionic": [
            [
                2.23520949,
                0.0,
                -2e-08
            ],
            [
                0.0,
                1.95488715,
                -3.7e-07
            ],
            [
                -2e-08,
                -3.7e-07,
                2.45435095
            ]
        ],
        "epsilon_ionic_avg": 2.2148158633333335,
        "epsilon_ionic_eig": [
            2.2352094899999986,
            2.4543509500002756,
            1.954887149999726
        ],
        "epsilon_electronic": [
            [
                2.41430385,
                0.0,
                0.0
            ],
            [
                0.0,
                2.39375687,
                0.0
            ],
            [
                0.0,
                0.0,
                2.42596776
            ]
        ],
        "epsilon_electronic_avg": 2.4113428266666666,
        "epsilon_electronic_eig": [
            2.41430385,
            2.39375687,
            2.42596776
        ]
    },
    "phonon": {
        "lowest_freq": -0.13481362792355966,
        "frequency": [
            -0.13481362792355966,
            -0.09594506053446156,
            -0.0639299802211562,
            2.4915657495845474,
            2.9233996056253413,
            3.0942241211105173,
            3.410669361736002,
            4.057706732168461,
            4.288605074639833,
            4.709175144155561,
            4.943377362254395,
            5.415038269180878,
            5.533407850211459,
            5.589418104471014,
            5.941891863052993,
            6.061550687157359,
            6.371435958147423,
            6.414521535501192,
            6.435969879421503,
            6.691891466264258,
            7.051154994869568,
            7.140023506700912,
            7.210197470121744,
            7.3826665871037775,
            7.605008314491734,
            8.004140594720786,
            8.015985090236455,
            8.0948715587537,
            8.206333990021013,
            8.390932248475712,
            10.315705051614916,
            10.636736889598895,
            11.049554517311693,
            11.322663183873598,
            11.509710763315702,
            11.931309590463693,
            12.188925929977117,
            12.295933028988513,
            12.597544544298792,
            13.33554790428953,
            23.13246147052499,
            23.337208123973074,
            23.532048698068657,
            23.623722049179225,
            23.85247398558179,
            23.89020501648168,
            23.90349942471184,
            24.18174273185883
        ]
    },
    "born_effective_charge": {
        "avg_abs_trace": 1.4529691666666666,
        "tensors": [
            [
                [
                    1.15083,
                    0.0,
                    -0.0
                ],
                [
                    0.0,
                    0.89588,
                    -0.0177
                ],
                [
                    0.0,
                    0.08901,
                    1.04951
                ]
            ],
            [
                [
                    0.92708,
                    -0.07627,
                    0.0557
                ],
                [
                    0.04889,
                    1.0728,
                    -0.00963
                ],
                [
                    -0.07483,
                    0.04365,
                    1.01136
                ]
            ],
            [
                [
                    0.92708,
                    -0.07627,
                    -0.0557
                ],
                [
                    0.04889,
                    1.0728,
                    0.00963
                ],
                [
                    0.07483,
                    -0.04365,
                    1.01136
                ]
            ],
            [
                [
                    1.15083,
                    -0.0,
                    -0.0
                ],
                [
                    0.0,
                    0.89588,
                    0.0177
                ],
                [
                    0.0,
                    -0.08901,
                    1.04951
                ]
            ],
            [
                [
                    0.92708,
                    0.07627,
                    0.0557
                ],
                [
                    -0.04889,
                    1.0728,
                    0.00963
                ],
                [
                    -0.07483,
                    -0.04365,
                    1.01136
                ]
            ],
            [
                [
                    0.92708,
                    0.07627,
                    -0.0557
                ],
                [
                    -0.04889,
                    1.0728,
                    -0.00963
                ],
                [
                    0.07483,
                    0.04365,
                    1.01136
                ]
            ],
            [
                [
                    2.86249,
                    -0.0,
                    -0.0
                ],
                [
                    0.0,
                    2.62406,
                    -0.00472
                ],
                [
                    0.0,
                    -0.02133,
                    2.83039
                ]
            ],
            [
                [
                    2.86249,
                    0.0,
                    -0.0
                ],
                [
                    0.0,
                    2.62406,
                    0.00472
                ],
                [
                    0.0,
                    0.02133,
                    2.83039
                ]
            ],
            [
                [
                    -1.16493,
                    0.0,
                    0.0
                ],
                [
                    0.0,
                    -1.9001,
                    0.25821
                ],
                [
                    0.0,
                    0.27173,
                    -1.27017
                ]
            ],
            [
                [
                    -1.1439,
                    -0.0,
                    -0.0
                ],
                [
                    0.0,
                    -1.05987,
                    -0.00119
                ],
                [
                    0.0,
                    0.01025,
                    -2.09033
                ]
            ],
            [
                [
                    -1.77932,
                    0.38801,
                    -0.25219
                ],
                [
                    0.30416,
                    -1.35278,
                    0.12779
                ],
                [
                    -0.27333,
                    0.12648,
                    -1.27106
                ]
            ],
            [
                [
                    -1.77932,
                    0.38801,
                    0.25219
                ],
                [
                    0.30416,
                    -1.35278,
                    -0.12779
                ],
                [
                    0.27333,
                    -0.12648,
                    -1.27106
                ]
            ],
            [
                [
                    -1.1439,
                    0.0,
                    -0.0
                ],
                [
                    0.0,
                    -1.05987,
                    0.00119
                ],
                [
                    0.0,
                    -0.01025,
                    -2.09033
                ]
            ],
            [
                [
                    -1.16493,
                    -0.0,
                    0.0
                ],
                [
                    0.0,
                    -1.9001,
                    -0.25821
                ],
                [
                    0.0,
                    -0.27173,
                    -1.27017
                ]
            ],
            [
                [
                    -1.77932,
                    -0.38801,
                    -0.25219
                ],
                [
                    -0.30416,
                    -1.35278,
                    -0.12779
                ],
                [
                    -0.27333,
                    -0.12648,
                    -1.27106
                ]
            ],
            [
                [
                    -1.77932,
                    -0.38801,
                    0.25219
                ],
                [
                    -0.30416,
                    -1.35278,
                    0.12779
                ],
                [
                    0.27333,
                    0.12648,
                    -1.27106
                ]
            ]
        ]
    },
    "band_gap": 3.3761,
    "is_direct": false,
    "formula": "Na3AsO4"
}