{
    "mp_id": "mp-752508",
    "nelements": 3,
    "nsites": 14,
    "elements": [
        "Cs",
        "O",
        "W"
    ],
    "structure": {
        "@module": "pymatgen.core.structure",
        "@class": "Structure",
        "charge": null,
        "lattice": {
            "matrix": [
                [
                    6.69935545,
                    -3.23178705,
                    0.0057147
                ],
                [
                    6.69935545,
                    3.23178705,
                    0.0057147
                ],
                [
                    -3.61436015,
                    0.0,
                    7.37543312
                ]
            ],
            "a": 7.438134419314328,
            "b": 7.438134419314328,
            "c": 8.213440996409542,
            "alpha": 113.30694475139892,
            "beta": 113.30694475139892,
            "gamma": 51.50555606455938,
            "volume": 319.50289013959485
        },
        "sites": [
            {
                "species": [
                    {
                        "element": "Cs",
                        "occu": 1
                    }
                ],
                "abc": [
                    0.51395358,
                    0.51395358,
                    0.24144562
                ],
                "xyz": [
                    6.0136440071199795,
                    0.0,
                    1.7866402034741864
                ],
                "label": "Cs",
                "properties": {}
            },
            {
                "species": [
                    {
                        "element": "Cs",
                        "occu": 1
                    }
                ],
                "abc": [
                    0.15692687,
                    0.15692687,
                    0.74344312
                ],
                "xyz": [
                    -0.5844534231477851,
                    0.0,
                    5.485008590052113
                ],
                "label": "Cs",
                "properties": {}
            },
            {
                "species": [
                    {
                        "element": "Cs",
                        "occu": 1
                    }
                ],
                "abc": [
                    0.84307313,
                    0.84307313,
                    0.25655688
                ],
                "xyz": [
                    10.368804173147783,
                    0.0,
                    1.9018539299478874
                ],
                "label": "Cs",
                "properties": {}
            },
            {
                "species": [
                    {
                        "element": "Cs",
                        "occu": 1
                    }
                ],
                "abc": [
                    0.48604642,
                    0.48604642,
                    0.75855438
                ],
                "xyz": [
                    3.77070674288002,
                    0.0,
                    5.600222316525813
                ],
                "label": "Cs",
                "properties": {}
            },
            {
                "species": [
                    {
                        "element": "W",
                        "occu": 1
                    }
                ],
                "abc": [
                    0.17290924,
                    0.17290924,
                    0.21945897
                ],
                "xyz": [
                    1.5235571629706701,
                    0.0,
                    1.6205812046867425
                ],
                "label": "W",
                "properties": {}
            },
            {
                "species": [
                    {
                        "element": "W",
                        "occu": 1
                    }
                ],
                "abc": [
                    0.82709076,
                    0.82709076,
                    0.78054103
                ],
                "xyz": [
                    8.26079358702933,
                    0.0,
                    5.7662813153132575
                ],
                "label": "W",
                "properties": {}
            },
            {
                "species": [
                    {
                        "element": "O",
                        "occu": 1
                    }
                ],
                "abc": [
                    0.09295715,
                    0.09295715,
                    0.34663486
                ],
                "xyz": [
                    -0.007357245646893995,
                    0.0,
                    2.5576446714407735
                ],
                "label": "O",
                "properties": {}
            },
            {
                "species": [
                    {
                        "element": "O",
                        "occu": 1
                    }
                ],
                "abc": [
                    0.68059747,
                    0.68059747,
                    0.63429548
                ],
                "xyz": [
                    6.826556433564301,
                    0.0,
                    4.685982711781916
                ],
                "label": "O",
                "properties": {}
            },
            {
                "species": [
                    {
                        "element": "O",
                        "occu": 1
                    }
                ],
                "abc": [
                    0.63153611,
                    0.08547166,
                    0.91957224
                ],
                "xyz": [
                    1.4798246523396101,
                    -1.7647640179753723,
                    6.786341039431808
                ],
                "label": "O",
                "properties": {}
            },
            {
                "species": [
                    {
                        "element": "O",
                        "occu": 1
                    }
                ],
                "abc": [
                    0.08547166,
                    0.63153611,
                    0.91957224
                ],
                "xyz": [
                    1.4798246523396101,
                    1.7647640179753723,
                    6.786341039431808
                ],
                "label": "O",
                "properties": {}
            },
            {
                "species": [
                    {
                        "element": "O",
                        "occu": 1
                    }
                ],
                "abc": [
                    0.36846389,
                    0.91452834,
                    0.08042776
                ],
                "xyz": [
                    8.30452609766039,
                    1.7647640179753723,
                    0.6005214805681923
                ],
                "label": "O",
                "properties": {}
            },
            {
                "species": [
                    {
                        "element": "O",
                        "occu": 1
                    }
                ],
                "abc": [
                    0.91452834,
                    0.36846389,
                    0.08042776
                ],
                "xyz": [
                    8.30452609766039,
                    -1.7647640179753723,
                    0.6005214805681923
                ],
                "label": "O",
                "properties": {}
            },
            {
                "species": [
                    {
                        "element": "O",
                        "occu": 1
                    }
                ],
                "abc": [
                    0.31940253,
                    0.31940253,
                    0.36570452
                ],
                "xyz": [
                    2.957794316435699,
                    0.0,
                    2.700879808218084
                ],
                "label": "O",
                "properties": {}
            },
            {
                "species": [
                    {
                        "element": "O",
                        "occu": 1
                    }
                ],
                "abc": [
                    0.90704285,
                    0.90704285,
                    0.65336514
                ],
                "xyz": [
                    9.791707995646894,
                    0.0,
                    4.829217848559227
                ],
                "label": "O",
                "properties": {}
            }
        ]
    },
    "spacegroup": {
        "source": "spglib",
        "symbol": "C2/m",
        "number": 12,
        "point_group": "2/m",
        "crystal_system": "monoclinic",
        "hall": "-C 2y"
    },
    "dielectric": {
        "epsilon_ionic": [
            [
                3.71363946,
                2.6e-07,
                -0.23800409
            ],
            [
                2.6e-07,
                5.64454974,
                4.6e-07
            ],
            [
                -0.23800409,
                4.6e-07,
                3.54412511
            ]
        ],
        "epsilon_ionic_avg": 4.300771436666667,
        "epsilon_ionic_eig": [
            3.376236830715206,
            3.8815277392846723,
            5.644549740000124
        ],
        "epsilon_electronic": [
            [
                2.84776409,
                0.0,
                -0.01246171
            ],
            [
                0.0,
                2.87944643,
                0.0
            ],
            [
                -0.01245955,
                0.0,
                2.77769462
            ]
        ],
        "epsilon_electronic_avg": 2.83496838,
        "epsilon_electronic_eig": [
            2.8499140286620173,
            2.775544681337983,
            2.87944643
        ]
    },
    "phonon": {
        "lowest_freq": -0.07021277684836578,
        "frequency": [
            -0.07021277684836578,
            -0.05666533667891658,
            -0.040735028184245785,
            0.9610438976933251,
            1.0068668319476655,
            1.2779645098271963,
            1.5042647106011156,
            1.5926256286738063,
            1.6267239889356047,
            1.6779546245050867,
            1.818247579438624,
            1.9573661581690687,
            2.127915816890055,
            2.1715083210052715,
            2.440860173548203,
            2.5098910020453227,
            2.513429741557743,
            2.575430256887136,
            2.684304778788343,
            3.0043245353263033,
            3.4282632070287375,
            3.685298245320919,
            3.7222205825284336,
            3.986486927640934,
            8.279577408725904,
            8.492395534410479,
            8.677611289160469,
            8.754549499007862,
            8.935091553283895,
            9.137222260857248,
            9.18924076636035,
            9.369115937398192,
            9.690069810513004,
            9.941351390353537,
            23.346397340838625,
            23.39966453672576,
            23.423895264993863,
            23.45368692535111,
            23.631680462698966,
            23.776113176318923,
            26.121436604796056,
            26.1401839827733
        ]
    },
    "born_effective_charge": {
        "avg_abs_trace": 1.7005435714285715,
        "tensors": [
            [
                [
                    1.36541,
                    0.0,
                    0.11027
                ],
                [
                    3e-05,
                    1.49082,
                    1e-05
                ],
                [
                    0.17001,
                    -0.0,
                    1.44247
                ]
            ],
            [
                [
                    1.45163,
                    0.0,
                    -0.10577
                ],
                [
                    -2e-05,
                    1.2885,
                    1e-05
                ],
                [
                    -0.16728,
                    -0.0,
                    1.40304
                ]
            ],
            [
                [
                    1.45163,
                    0.0,
                    -0.10573
                ],
                [
                    2e-05,
                    1.2885,
                    -1e-05
                ],
                [
                    -0.1674,
                    -0.0,
                    1.40295
                ]
            ],
            [
                [
                    1.36538,
                    0.0,
                    0.11023
                ],
                [
                    -3e-05,
                    1.49082,
                    -1e-05
                ],
                [
                    0.17,
                    -0.0,
                    1.44242
                ]
            ],
            [
                [
                    3.20786,
                    0.0,
                    0.04154
                ],
                [
                    0.00014,
                    3.22602,
                    0.0002
                ],
                [
                    0.01154,
                    -0.0,
                    2.97998
                ]
            ],
            [
                [
                    3.20801,
                    0.0,
                    0.04141
                ],
                [
                    -0.00014,
                    3.22602,
                    -0.0002
                ],
                [
                    0.01123,
                    -0.0,
                    2.97995
                ]
            ],
            [
                [
                    -2.26242,
                    0.0,
                    0.86869
                ],
                [
                    9e-05,
                    -0.77918,
                    -0.00021
                ],
                [
                    0.83529,
                    -0.0,
                    -1.42727
                ]
            ],
            [
                [
                    -2.06854,
                    0.0,
                    -0.94432
                ],
                [
                    0.00083,
                    -0.80021,
                    0.00085
                ],
                [
                    -0.91875,
                    -0.0,
                    -1.56367
                ]
            ],
            [
                [
                    -0.84707,
                    0.04098,
                    0.01511
                ],
                [
                    0.07678,
                    -2.2123,
                    -0.86146
                ],
                [
                    0.03498,
                    -0.82018,
                    -1.41712
                ]
            ],
            [
                [
                    -0.84707,
                    -0.04098,
                    0.01511
                ],
                [
                    -0.07685,
                    -2.21365,
                    0.862
                ],
                [
                    0.03498,
                    0.82018,
                    -1.41712
                ]
            ],
            [
                [
                    -0.84686,
                    0.0408,
                    0.01497
                ],
                [
                    0.07685,
                    -2.21365,
                    -0.862
                ],
                [
                    0.03486,
                    -0.82103,
                    -1.41729
                ]
            ],
            [
                [
                    -0.84686,
                    -0.0408,
                    0.01497
                ],
                [
                    -0.07678,
                    -2.2123,
                    0.86146
                ],
                [
                    0.03486,
                    0.82103,
                    -1.41729
                ]
            ],
            [
                [
                    -2.06893,
                    0.0,
                    -0.94496
                ],
                [
                    -0.00083,
                    -0.80021,
                    -0.00085
                ],
                [
                    -0.91959,
                    -0.0,
                    -1.56395
                ]
            ],
            [
                [
                    -2.26218,
                    0.0,
                    0.8685
                ],
                [
                    -9e-05,
                    -0.77918,
                    0.00021
                ],
                [
                    0.83526,
                    -0.0,
                    -1.4271
                ]
            ]
        ]
    },
    "band_gap": 4.7617,
    "is_direct": false,
    "formula": "Cs2WO4"
}