{
    "mp_id": "mp-770408",
    "nelements": 3,
    "nsites": 30,
    "elements": [
        "O",
        "Rb",
        "Ti"
    ],
    "structure": {
        "@module": "pymatgen.core.structure",
        "@class": "Structure",
        "charge": null,
        "lattice": {
            "matrix": [
                [
                    6.82323857,
                    0.0,
                    -0.00067801
                ],
                [
                    0.0,
                    9.63526001,
                    0.0
                ],
                [
                    -6.45086654,
                    0.0,
                    9.75870181
                ]
            ],
            "a": 6.823238603686171,
            "b": 9.63526001,
            "c": 11.698116948183962,
            "alpha": 90.0,
            "beta": 123.47188678083204,
            "gamma": 90.0,
            "volume": 641.5308046434213
        },
        "sites": [
            {
                "species": [
                    {
                        "element": "Rb",
                        "occu": 1
                    }
                ],
                "abc": [
                    0.40652206,
                    0.2072365,
                    0.28107647
                ],
                "xyz": [
                    0.9606102038435402,
                    1.9967775610623648,
                    2.7426658305155103
                ],
                "label": "Rb",
                "properties": {}
            },
            {
                "species": [
                    {
                        "element": "Rb",
                        "occu": 1
                    }
                ],
                "abc": [
                    0.05109399,
                    0.34667673,
                    0.92912436
                ],
                "xyz": [
                    -5.6450307621597196,
                    3.340320432966567,
                    9.06701293141093
                ],
                "label": "Rb",
                "properties": {}
            },
            {
                "species": [
                    {
                        "element": "Rb",
                        "occu": 1
                    }
                ],
                "abc": [
                    0.79487291,
                    0.47382283,
                    0.5464697
                ],
                "xyz": [
                    1.8984043949063016,
                    4.565406165724028,
                    5.332295918718447
                ],
                "label": "Rb",
                "properties": {}
            },
            {
                "species": [
                    {
                        "element": "Rb",
                        "occu": 1
                    }
                ],
                "abc": [
                    0.20512709,
                    0.97382283,
                    0.9535303
                ],
                "xyz": [
                    -4.7514656349063005,
                    9.383036170724028,
                    9.305078786281552
                ],
                "label": "Rb",
                "properties": {}
            },
            {
                "species": [
                    {
                        "element": "Rb",
                        "occu": 1
                    }
                ],
                "abc": [
                    0.59347794,
                    0.7072365,
                    0.21892353
                ],
                "xyz": [
                    2.63719509615646,
                    6.814407566062365,
                    2.13600706448449
                ],
                "label": "Rb",
                "properties": {}
            },
            {
                "species": [
                    {
                        "element": "Rb",
                        "occu": 1
                    }
                ],
                "abc": [
                    0.94890601,
                    0.84667673,
                    0.57087564
                ],
                "xyz": [
                    2.7919695221597203,
                    8.157950437966567,
                    5.5703617735890685
                ],
                "label": "Rb",
                "properties": {}
            },
            {
                "species": [
                    {
                        "element": "Rb",
                        "occu": 1
                    }
                ],
                "abc": [
                    0.05109399,
                    0.15332327,
                    0.42912436
                ],
                "xyz": [
                    -2.41959749215972,
                    1.4773095720334328,
                    4.187662026410932
                ],
                "label": "Rb",
                "properties": {}
            },
            {
                "species": [
                    {
                        "element": "Rb",
                        "occu": 1
                    }
                ],
                "abc": [
                    0.40652206,
                    0.2927635,
                    0.78107647
                ],
                "xyz": [
                    -2.2648230661564597,
                    2.820852443937635,
                    7.62201673551551
                ],
                "label": "Rb",
                "properties": {}
            },
            {
                "species": [
                    {
                        "element": "Rb",
                        "occu": 1
                    }
                ],
                "abc": [
                    0.79487291,
                    0.02617717,
                    0.0464697
                ],
                "xyz": [
                    5.1238376649063015,
                    0.2522238392759717,
                    0.4529450137184479
                ],
                "label": "Rb",
                "properties": {}
            },
            {
                "species": [
                    {
                        "element": "Rb",
                        "occu": 1
                    }
                ],
                "abc": [
                    0.20512709,
                    0.52617717,
                    0.4535303
                ],
                "xyz": [
                    -1.5260323649063008,
                    5.069853844275971,
                    4.425727881281552
                ],
                "label": "Rb",
                "properties": {}
            },
            {
                "species": [
                    {
                        "element": "Rb",
                        "occu": 1
                    }
                ],
                "abc": [
                    0.94890601,
                    0.65332327,
                    0.07087564
                ],
                "xyz": [
                    6.01740279215972,
                    6.294939577033433,
                    0.6910108685890683
                ],
                "label": "Rb",
                "properties": {}
            },
            {
                "species": [
                    {
                        "element": "Rb",
                        "occu": 1
                    }
                ],
                "abc": [
                    0.59347794,
                    0.7927635,
                    0.71892353
                ],
                "xyz": [
                    -0.58823817384354,
                    7.638482448937634,
                    7.01535796948449
                ],
                "label": "Rb",
                "properties": {}
            },
            {
                "species": [
                    {
                        "element": "Ti",
                        "occu": 1
                    }
                ],
                "abc": [
                    0.68723856,
                    0.14224953,
                    0.63172354
                ],
                "xyz": [
                    0.6140284026669081,
                    1.3706112078502954,
                    6.164335698601541
                ],
                "label": "Ti",
                "properties": {}
            },
            {
                "species": [
                    {
                        "element": "Ti",
                        "occu": 1
                    }
                ],
                "abc": [
                    0.31276144,
                    0.64224953,
                    0.86827646
                ],
                "xyz": [
                    -3.4670896426669073,
                    6.188241212850294,
                    8.473039006398457
                ],
                "label": "Ti",
                "properties": {}
            },
            {
                "species": [
                    {
                        "element": "Ti",
                        "occu": 1
                    }
                ],
                "abc": [
                    0.68723856,
                    0.35775047,
                    0.13172354
                ],
                "xyz": [
                    3.839461672666908,
                    3.4470187971497044,
                    1.2849847936015417
                ],
                "label": "Ti",
                "properties": {}
            },
            {
                "species": [
                    {
                        "element": "Ti",
                        "occu": 1
                    }
                ],
                "abc": [
                    0.31276144,
                    0.85775047,
                    0.36827646
                ],
                "xyz": [
                    -0.24165637266690743,
                    8.264648802149704,
                    3.5936881013984587
                ],
                "label": "Ti",
                "properties": {}
            },
            {
                "species": [
                    {
                        "element": "O",
                        "occu": 1
                    }
                ],
                "abc": [
                    0.5,
                    0.0,
                    0.5
                ],
                "xyz": [
                    0.1861860150000001,
                    0.0,
                    4.8790119
                ],
                "label": "O",
                "properties": {}
            },
            {
                "species": [
                    {
                        "element": "O",
                        "occu": 1
                    }
                ],
                "abc": [
                    0.24281911,
                    0.90488885,
                    0.19708193
                ],
                "xyz": [
                    0.3854634890094508,
                    8.718839349899888,
                    1.923099153224522
                ],
                "label": "O",
                "properties": {}
            },
            {
                "species": [
                    {
                        "element": "O",
                        "occu": 1
                    }
                ],
                "abc": [
                    0.50230899,
                    0.70287189,
                    0.42831466
                ],
                "xyz": [
                    0.6643733658402677,
                    6.772353413870119,
                    4.179454477273225
                ],
                "label": "O",
                "properties": {}
            },
            {
                "species": [
                    {
                        "element": "O",
                        "occu": 1
                    }
                ],
                "abc": [
                    0.04324814,
                    0.67248862,
                    0.86632098
                ],
                "xyz": [
                    -5.29342864585325,
                    6.479602707466086,
                    8.454138792895572
                ],
                "label": "O",
                "properties": {}
            },
            {
                "species": [
                    {
                        "element": "O",
                        "occu": 1
                    }
                ],
                "abc": [
                    0.95675186,
                    0.17248862,
                    0.63367902
                ],
                "xyz": [
                    2.44036740585325,
                    1.6619727024660862,
                    6.183235912104427
                ],
                "label": "O",
                "properties": {}
            },
            {
                "species": [
                    {
                        "element": "O",
                        "occu": 1
                    }
                ],
                "abc": [
                    0.49769101,
                    0.20287189,
                    0.07168534
                ],
                "xyz": [
                    2.9334319341597324,
                    1.9547234088701189,
                    0.6992184177267753
                ],
                "label": "O",
                "properties": {}
            },
            {
                "species": [
                    {
                        "element": "O",
                        "occu": 1
                    }
                ],
                "abc": [
                    0.75718089,
                    0.40488885,
                    0.30291807
                ],
                "xyz": [
                    3.2123418109905497,
                    3.9012093448998884,
                    2.9555737417754777
                ],
                "label": "O",
                "properties": {}
            },
            {
                "species": [
                    {
                        "element": "O",
                        "occu": 1
                    }
                ],
                "abc": [
                    0.5,
                    0.5,
                    0.0
                ],
                "xyz": [
                    3.411619285,
                    4.817630005,
                    -0.000339005
                ],
                "label": "O",
                "properties": {}
            },
            {
                "species": [
                    {
                        "element": "O",
                        "occu": 1
                    }
                ],
                "abc": [
                    0.24281911,
                    0.59511115,
                    0.69708193
                ],
                "xyz": [
                    -2.8399697809905495,
                    5.734050665100112,
                    6.8024500582245215
                ],
                "label": "O",
                "properties": {}
            },
            {
                "species": [
                    {
                        "element": "O",
                        "occu": 1
                    }
                ],
                "abc": [
                    0.50230899,
                    0.79712811,
                    0.92831466
                ],
                "xyz": [
                    -2.561059904159732,
                    7.68053660112988,
                    9.058805382273224
                ],
                "label": "O",
                "properties": {}
            },
            {
                "species": [
                    {
                        "element": "O",
                        "occu": 1
                    }
                ],
                "abc": [
                    0.04324814,
                    0.82751138,
                    0.36632098
                ],
                "xyz": [
                    -2.0679953758532497,
                    7.973287307533914,
                    3.574787887895573
                ],
                "label": "O",
                "properties": {}
            },
            {
                "species": [
                    {
                        "element": "O",
                        "occu": 1
                    }
                ],
                "abc": [
                    0.95675186,
                    0.32751138,
                    0.13367902
                ],
                "xyz": [
                    5.66580067585325,
                    3.155657302533914,
                    1.3038850071044277
                ],
                "label": "O",
                "properties": {}
            },
            {
                "species": [
                    {
                        "element": "O",
                        "occu": 1
                    }
                ],
                "abc": [
                    0.49769101,
                    0.29712811,
                    0.57168534
                ],
                "xyz": [
                    -0.292001335840268,
                    2.862906596129881,
                    5.578569322726776
                ],
                "label": "O",
                "properties": {}
            },
            {
                "species": [
                    {
                        "element": "O",
                        "occu": 1
                    }
                ],
                "abc": [
                    0.75718089,
                    0.09511115,
                    0.80291807
                ],
                "xyz": [
                    -0.01309145900945019,
                    0.9164206601001115,
                    7.8349246467754785
                ],
                "label": "O",
                "properties": {}
            }
        ]
    },
    "spacegroup": {
        "source": "spglib",
        "symbol": "P2_1/c",
        "number": 14,
        "point_group": "2/m",
        "crystal_system": "monoclinic",
        "hall": "-P 2ybc"
    },
    "dielectric": {
        "epsilon_ionic": [
            [
                4.47986119,
                -2e-08,
                -0.14539184
            ],
            [
                -2e-08,
                7.88195371,
                -2e-08
            ],
            [
                -0.14539184,
                -2e-08,
                5.40693294
            ]
        ],
        "epsilon_ionic_avg": 5.922915946666667,
        "epsilon_ionic_eig": [
            4.457594332864207,
            5.429199797135795,
            7.881953710000002
        ],
        "epsilon_electronic": [
            [
                2.99361895,
                0.0,
                0.00044013
            ],
            [
                0.0,
                2.93245916,
                0.0
            ],
            [
                0.00044176,
                0.0,
                2.98873017
            ]
        ],
        "epsilon_electronic_avg": 2.97160276,
        "epsilon_electronic_eig": [
            2.9936584026481765,
            2.988690717351824,
            2.93245916
        ]
    },
    "phonon": {
        "lowest_freq": -0.27404324090250964,
        "frequency": [
            -0.27404324090250964,
            -0.058876646511214624,
            -0.02654809675209166,
            0.11567740304662351,
            1.280048166357821,
            1.3516333406527532,
            1.4016312181767745,
            1.4295488091332742,
            1.6490224373783162,
            1.6864379806342615,
            1.7128879227301588,
            1.7927021579982931,
            1.8346431305897497,
            2.0061994314590934,
            2.026311836336947,
            2.0422517560263955,
            2.068461571122203,
            2.092908327145381,
            2.0998981903497222,
            2.2195310248490987,
            2.300739543334471,
            2.320299075159609,
            2.3582465984404806,
            2.3803391196445993,
            2.389421233756192,
            2.414064153368344,
            2.471634578441662,
            2.6185638376564633,
            2.6720120058448713,
            2.719646909517294,
            2.7956794697290177,
            2.881826196395459,
            2.919895545686537,
            2.9663234735469675,
            2.99008134720309,
            3.0502984731343186,
            3.0506269731980122,
            3.282861662120123,
            3.4725770788088766,
            3.508573002888571,
            3.522706832360355,
            3.5606353002950395,
            3.6283202528831233,
            3.667751684788122,
            3.779921254980524,
            4.0169234016698185,
            4.094468190199756,
            4.294305918452707,
            4.3641673128939305,
            4.3887370820745275,
            4.5513205451188545,
            4.646475357211849,
            4.968205648140973,
            5.153044442639677,
            5.529871991334561,
            5.968446752170106,
            6.073526096982152,
            6.510340588799406,
            6.562972028629164,
            7.077158122016802,
            7.816747269280893,
            7.8272102916319355,
            7.963922268651124,
            8.216927167653788,
            8.38421247566479,
            8.387804404985165,
            8.558872886006274,
            8.873664266993108,
            9.079980744162555,
            9.378544910691922,
            9.410311992682464,
            9.636995657144475,
            9.707591582353608,
            9.873028283181684,
            12.282019576530708,
            12.60950700795796,
            20.504261833928762,
            20.62598887652615,
            21.21885476379406,
            21.306319307545174,
            21.376372976418402,
            21.39791848331344,
            21.445811490589936,
            21.576669703670678,
            21.64435709265725,
            22.480519168262003,
            22.56755077279884,
            23.05601451315009,
            23.859458649182677,
            23.859611069335756
        ]
    },
    "born_effective_charge": {
        "avg_abs_trace": 1.8019395555555555,
        "tensors": [
            [
                [
                    1.29099,
                    0.07635,
                    -0.05363
                ],
                [
                    0.1399,
                    1.10204,
                    -0.14723
                ],
                [
                    -0.11773,
                    -0.17846,
                    1.19261
                ]
            ],
            [
                [
                    1.35363,
                    0.12999,
                    -0.0494
                ],
                [
                    0.13023,
                    1.1235,
                    0.08857
                ],
                [
                    0.04513,
                    0.08301,
                    1.14545
                ]
            ],
            [
                [
                    1.12037,
                    0.0591,
                    0.02596
                ],
                [
                    0.07557,
                    1.40117,
                    -0.02748
                ],
                [
                    0.03568,
                    0.03303,
                    1.23286
                ]
            ],
            [
                [
                    1.12007,
                    -0.05902,
                    0.02596
                ],
                [
                    -0.07557,
                    1.40117,
                    0.02748
                ],
                [
                    0.03581,
                    -0.03296,
                    1.23258
                ]
            ],
            [
                [
                    1.29087,
                    -0.0765,
                    -0.05367
                ],
                [
                    -0.1399,
                    1.10204,
                    0.14723
                ],
                [
                    -0.11773,
                    0.17848,
                    1.19253
                ]
            ],
            [
                [
                    1.35355,
                    -0.13,
                    -0.04919
                ],
                [
                    -0.13023,
                    1.1235,
                    -0.08857
                ],
                [
                    0.04499,
                    -0.08302,
                    1.14543
                ]
            ],
            [
                [
                    1.35363,
                    -0.12999,
                    -0.0494
                ],
                [
                    -0.13029,
                    1.12346,
                    -0.08856
                ],
                [
                    0.04513,
                    -0.08301,
                    1.14545
                ]
            ],
            [
                [
                    1.29099,
                    -0.07635,
                    -0.05363
                ],
                [
                    -0.13999,
                    1.102,
                    0.14707
                ],
                [
                    -0.11773,
                    0.17846,
                    1.19261
                ]
            ],
            [
                [
                    1.12037,
                    -0.0591,
                    0.02596
                ],
                [
                    -0.07559,
                    1.40124,
                    0.02733
                ],
                [
                    0.03568,
                    -0.03303,
                    1.23286
                ]
            ],
            [
                [
                    1.12007,
                    0.05902,
                    0.02596
                ],
                [
                    0.07559,
                    1.40124,
                    -0.02733
                ],
                [
                    0.03581,
                    0.03296,
                    1.23258
                ]
            ],
            [
                [
                    1.35355,
                    0.13,
                    -0.04919
                ],
                [
                    0.13029,
                    1.12346,
                    0.08856
                ],
                [
                    0.04499,
                    0.08302,
                    1.14543
                ]
            ],
            [
                [
                    1.29087,
                    0.0765,
                    -0.05367
                ],
                [
                    0.13999,
                    1.102,
                    -0.14707
                ],
                [
                    -0.11773,
                    -0.17848,
                    1.19253
                ]
            ],
            [
                [
                    3.06633,
                    0.0228,
                    0.07539
                ],
                [
                    0.05851,
                    2.99012,
                    0.12098
                ],
                [
                    0.03106,
                    0.12138,
                    3.25333
                ]
            ],
            [
                [
                    3.06612,
                    -0.02292,
                    0.0753
                ],
                [
                    -0.05851,
                    2.99012,
                    -0.12098
                ],
                [
                    0.03164,
                    -0.12136,
                    3.25315
                ]
            ],
            [
                [
                    3.06633,
                    -0.0228,
                    0.07539
                ],
                [
                    -0.05856,
                    2.99025,
                    -0.12086
                ],
                [
                    0.03106,
                    -0.12138,
                    3.25333
                ]
            ],
            [
                [
                    3.06612,
                    0.02292,
                    0.0753
                ],
                [
                    0.05856,
                    2.99025,
                    0.12086
                ],
                [
                    0.03164,
                    0.12136,
                    3.25315
                ]
            ],
            [
                [
                    -1.02691,
                    -0.50161,
                    -0.56509
                ],
                [
                    -0.53028,
                    -2.78675,
                    -1.63853
                ],
                [
                    -0.60887,
                    -1.58673,
                    -2.48587
                ]
            ],
            [
                [
                    -1.40192,
                    -0.1086,
                    0.5346
                ],
                [
                    -0.11788,
                    -1.45413,
                    0.39879
                ],
                [
                    0.5886,
                    0.42405,
                    -2.86474
                ]
            ],
            [
                [
                    -1.79498,
                    0.65608,
                    -0.31706
                ],
                [
                    0.70322,
                    -2.43627,
                    0.50752
                ],
                [
                    -0.2807,
                    0.41044,
                    -1.44282
                ]
            ],
            [
                [
                    -3.11941,
                    0.3279,
                    0.06644
                ],
                [
                    0.33973,
                    -1.33275,
                    0.09848
                ],
                [
                    0.00192,
                    0.09308,
                    -1.27354
                ]
            ],
            [
                [
                    -3.12081,
                    -0.328,
                    0.06619
                ],
                [
                    -0.33973,
                    -1.33275,
                    -0.09848
                ],
                [
                    0.00193,
                    -0.09294,
                    -1.27325
                ]
            ],
            [
                [
                    -1.79534,
                    -0.65663,
                    -0.317
                ],
                [
                    -0.70322,
                    -2.43627,
                    -0.50752
                ],
                [
                    -0.28064,
                    -0.41069,
                    -1.44306
                ]
            ],
            [
                [
                    -1.40256,
                    0.10874,
                    0.5352
                ],
                [
                    0.11788,
                    -1.45413,
                    -0.39879
                ],
                [
                    0.58892,
                    -0.42367,
                    -2.86466
                ]
            ],
            [
                [
                    -1.02691,
                    0.50161,
                    -0.56509
                ],
                [
                    0.53028,
                    -2.78675,
                    1.63853
                ],
                [
                    -0.60887,
                    1.58673,
                    -2.48587
                ]
            ],
            [
                [
                    -1.40192,
                    0.1086,
                    0.5346
                ],
                [
                    0.11805,
                    -1.45455,
                    -0.39888
                ],
                [
                    0.5886,
                    -0.42405,
                    -2.86474
                ]
            ],
            [
                [
                    -1.79498,
                    -0.65608,
                    -0.31706
                ],
                [
                    -0.70335,
                    -2.43647,
                    -0.50713
                ],
                [
                    -0.2807,
                    -0.41044,
                    -1.44282
                ]
            ],
            [
                [
                    -3.11941,
                    -0.3279,
                    0.06644
                ],
                [
                    -0.33978,
                    -1.33284,
                    -0.09829
                ],
                [
                    0.00192,
                    -0.09308,
                    -1.27354
                ]
            ],
            [
                [
                    -3.12081,
                    0.328,
                    0.06619
                ],
                [
                    0.33978,
                    -1.33284,
                    0.09829
                ],
                [
                    0.00193,
                    0.09294,
                    -1.27325
                ]
            ],
            [
                [
                    -1.79534,
                    0.65663,
                    -0.317
                ],
                [
                    0.70335,
                    -2.43647,
                    0.50713
                ],
                [
                    -0.28064,
                    0.41069,
                    -1.44306
                ]
            ],
            [
                [
                    -1.40256,
                    -0.10874,
                    0.5352
                ],
                [
                    -0.11805,
                    -1.45455,
                    0.39888
                ],
                [
                    0.58892,
                    0.42367,
                    -2.86466
                ]
            ]
        ]
    },
    "band_gap": 3.3036,
    "is_direct": true,
    "formula": "Rb6Ti2O7"
}