{
    "mp_id": "mp-754594",
    "nelements": 3,
    "nsites": 6,
    "elements": [
        "B",
        "O",
        "V"
    ],
    "structure": {
        "@module": "pymatgen.core.structure",
        "@class": "Structure",
        "charge": null,
        "lattice": {
            "matrix": [
                [
                    -2.43894247,
                    2.4389418,
                    3.63225532
                ],
                [
                    2.43894247,
                    -2.4389418,
                    3.63225532
                ],
                [
                    2.4389418,
                    2.43894247,
                    -3.63225532
                ]
            ],
            "a": 5.009007505027841,
            "b": 5.009007505027841,
            "c": 5.009007505027841,
            "alpha": 121.72446248815022,
            "beta": 121.72446248815022,
            "gamma": 87.03822449909856,
            "volume": 86.42499300541265
        },
        "sites": [
            {
                "species": [
                    {
                        "element": "V",
                        "occu": 1
                    }
                ],
                "abc": [
                    0.0,
                    0.0,
                    0.0
                ],
                "xyz": [
                    0.0,
                    0.0,
                    0.0
                ],
                "label": "V",
                "properties": {}
            },
            {
                "species": [
                    {
                        "element": "B",
                        "occu": 1
                    }
                ],
                "abc": [
                    0.25,
                    0.75,
                    0.5
                ],
                "xyz": [
                    2.4389421349999996,
                    3.350000004065379e-07,
                    1.81612766
                ],
                "label": "B",
                "properties": {}
            },
            {
                "species": [
                    {
                        "element": "O",
                        "occu": 1
                    }
                ],
                "abc": [
                    0.59177479,
                    0.96083602,
                    0.82220121
                ],
                "xyz": [
                    2.905420006957016,
                    1.105182589347975,
                    2.6530341553790726
                ],
                "label": "O",
                "properties": {}
            },
            {
                "species": [
                    {
                        "element": "O",
                        "occu": 1
                    }
                ],
                "abc": [
                    0.23042641,
                    0.40822521,
                    0.36906122
                ],
                "xyz": [
                    1.3337598806520319,
                    0.4664781581781735,
                    0.9792211646209277
                ],
                "label": "O",
                "properties": {}
            },
            {
                "species": [
                    {
                        "element": "O",
                        "occu": 1
                    }
                ],
                "abc": [
                    0.13863481,
                    0.76957359,
                    0.17779879
                ],
                "xyz": [
                    1.9724642874324088,
                    -1.1051819437373924,
                    2.6530341917016256
                ],
                "label": "O",
                "properties": {}
            },
            {
                "species": [
                    {
                        "element": "O",
                        "occu": 1
                    }
                ],
                "abc": [
                    0.03916398,
                    0.86136519,
                    0.63093878
                ],
                "xyz": [
                    3.544124413737393,
                    -0.4664775125675906,
                    0.9792211282983745
                ],
                "label": "O",
                "properties": {}
            }
        ]
    },
    "spacegroup": {
        "source": "spglib",
        "symbol": "I-4",
        "number": 82,
        "point_group": "-4",
        "crystal_system": "tetragonal",
        "hall": "I -4"
    },
    "dielectric": {
        "epsilon_ionic": [
            [
                3.6342092,
                1.386e-05,
                -0.00011302
            ],
            [
                1.386e-05,
                3.63386854,
                -0.00019078
            ],
            [
                -0.00011302,
                -0.00019078,
                4.2441215
            ]
        ],
        "epsilon_ionic_avg": 3.837399746666667,
        "epsilon_ionic_eig": [
            4.244121580587299,
            3.634209739103539,
            3.6338679203091626
        ],
        "epsilon_electronic": [
            [
                3.67374829,
                2.227e-05,
                0.0
            ],
            [
                -2.227e-05,
                3.67374829,
                0.0
            ],
            [
                0.0,
                0.0,
                3.7184566
            ]
        ],
        "epsilon_electronic_avg": 3.6886510599999998,
        "epsilon_electronic_eig": [
            3.67374829,
            3.67374829,
            3.7184566
        ]
    },
    "phonon": {
        "lowest_freq": -0.028520168803076743,
        "frequency": [
            -0.028520168803076743,
            -0.028520168803076743,
            -0.009897481745983615,
            3.344471385367328,
            3.344471385367328,
            9.240213798743655,
            10.985226454508078,
            11.517221459266388,
            12.774561168976646,
            12.774561168976646,
            13.012830692404146,
            23.77389270759734,
            23.818350893421037,
            23.818350893421037,
            25.32404364249823,
            25.32404364249823,
            25.462160777967917,
            30.6712593872516
        ]
    },
    "born_effective_charge": {
        "avg_abs_trace": 2.699593333333333,
        "tensors": [
            [
                [
                    3.99499,
                    0.84368,
                    -0.0002
                ],
                [
                    -0.84367,
                    3.99469,
                    1e-05
                ],
                [
                    -0.0,
                    0.0,
                    4.05363
                ]
            ],
            [
                [
                    3.94395,
                    -1.23341,
                    -0.0001
                ],
                [
                    1.2334,
                    3.94387,
                    0.00012
                ],
                [
                    -0.0,
                    0.0,
                    4.36522
                ]
            ],
            [
                [
                    -0.81816,
                    0.23118,
                    0.16622
                ],
                [
                    0.03569,
                    -3.15108,
                    -1.78152
                ],
                [
                    0.16638,
                    -1.66912,
                    -2.10472
                ]
            ],
            [
                [
                    -3.1509,
                    -0.03631,
                    -1.78142
                ],
                [
                    -0.231,
                    -0.81744,
                    -0.16576
                ],
                [
                    -1.66927,
                    -0.16642,
                    -2.1047
                ]
            ],
            [
                [
                    -0.8181,
                    0.23101,
                    -0.16566
                ],
                [
                    0.03677,
                    -3.15139,
                    1.78121
                ],
                [
                    -0.16638,
                    1.66912,
                    -2.10472
                ]
            ],
            [
                [
                    -3.15177,
                    -0.03615,
                    1.78116
                ],
                [
                    -0.2312,
                    -0.81865,
                    0.16594
                ],
                [
                    1.66927,
                    0.16642,
                    -2.1047
                ]
            ]
        ]
    },
    "band_gap": 3.0183999999999997,
    "is_direct": false,
    "formula": "VBO4"
}