{
    "mp_id": "mp-754311",
    "nelements": 3,
    "nsites": 11,
    "elements": [
        "Mg",
        "O",
        "Re"
    ],
    "structure": {
        "@module": "pymatgen.core.structure",
        "@class": "Structure",
        "charge": null,
        "lattice": {
            "matrix": [
                [
                    5.75543103,
                    0.0,
                    0.0
                ],
                [
                    -2.87771502,
                    4.9843487,
                    0.0
                ],
                [
                    0.0,
                    0.0,
                    6.4327856
                ]
            ],
            "a": 5.75543103,
            "b": 5.755430105519943,
            "c": 6.4327856,
            "alpha": 90.0,
            "beta": 90.0,
            "gamma": 119.9999996234196,
            "volume": 184.53780407461863
        },
        "sites": [
            {
                "species": [
                    {
                        "element": "Mg",
                        "occu": 1
                    }
                ],
                "abc": [
                    0.0,
                    0.0,
                    0.5
                ],
                "xyz": [
                    0.0,
                    0.0,
                    3.2163928
                ],
                "label": "Mg",
                "properties": {}
            },
            {
                "species": [
                    {
                        "element": "Re",
                        "occu": 1
                    }
                ],
                "abc": [
                    0.333333,
                    0.666667,
                    0.77481458
                ],
                "xyz": [
                    -2.547715350242896e-06,
                    3.3229007947829,
                    4.984216072894048
                ],
                "label": "Re",
                "properties": {}
            },
            {
                "species": [
                    {
                        "element": "Re",
                        "occu": 1
                    }
                ],
                "abc": [
                    0.666667,
                    0.333333,
                    0.22518542
                ],
                "xyz": [
                    2.8777185577153497,
                    1.6614479052170998,
                    1.448569527105952
                ],
                "label": "Re",
                "properties": {}
            },
            {
                "species": [
                    {
                        "element": "O",
                        "occu": 1
                    }
                ],
                "abc": [
                    0.16809332,
                    0.83190668,
                    0.68417409
                ],
                "xyz": [
                    -1.4265408384106144,
                    4.146512978979316,
                    4.401145234045104
                ],
                "label": "O",
                "properties": {}
            },
            {
                "species": [
                    {
                        "element": "O",
                        "occu": 1
                    }
                ],
                "abc": [
                    0.16809332,
                    0.33618664,
                    0.68417409
                ],
                "xyz": [
                    1.6641238664849567e-07,
                    1.6756714420413679,
                    4.401145234045104
                ],
                "label": "O",
                "properties": {}
            },
            {
                "species": [
                    {
                        "element": "O",
                        "occu": 1
                    }
                ],
                "abc": [
                    0.333333,
                    0.666667,
                    0.04347551
                ],
                "xyz": [
                    -2.547715350242896e-06,
                    3.3229007947829,
                    0.279668634680656
                ],
                "label": "O",
                "properties": {}
            },
            {
                "species": [
                    {
                        "element": "O",
                        "occu": 1
                    }
                ],
                "abc": [
                    0.33618664,
                    0.16809332,
                    0.31582591
                ],
                "xyz": [
                    1.4511743480017725,
                    0.8378357210206839,
                    2.031640365954896
                ],
                "label": "O",
                "properties": {}
            },
            {
                "species": [
                    {
                        "element": "O",
                        "occu": 1
                    }
                ],
                "abc": [
                    0.66381336,
                    0.83190668,
                    0.68417409
                ],
                "xyz": [
                    1.4265416619982267,
                    4.146512978979316,
                    4.401145234045104
                ],
                "label": "O",
                "properties": {}
            },
            {
                "species": [
                    {
                        "element": "O",
                        "occu": 1
                    }
                ],
                "abc": [
                    0.666667,
                    0.333333,
                    0.95652449
                ],
                "xyz": [
                    2.8777185577153497,
                    1.6614479052170998,
                    6.153116965319343
                ],
                "label": "O",
                "properties": {}
            },
            {
                "species": [
                    {
                        "element": "O",
                        "occu": 1
                    }
                ],
                "abc": [
                    0.83190668,
                    0.66381336,
                    0.31582591
                ],
                "xyz": [
                    2.8777158435876125,
                    3.308677257958632,
                    2.031640365954896
                ],
                "label": "O",
                "properties": {}
            },
            {
                "species": [
                    {
                        "element": "O",
                        "occu": 1
                    }
                ],
                "abc": [
                    0.83190668,
                    0.16809332,
                    0.31582591
                ],
                "xyz": [
                    4.304256848410613,
                    0.8378357210206839,
                    2.031640365954896
                ],
                "label": "O",
                "properties": {}
            }
        ]
    },
    "spacegroup": {
        "source": "spglib",
        "symbol": "P-3m1",
        "number": 164,
        "point_group": "-3m",
        "crystal_system": "trigonal",
        "hall": "-P 3 2\""
    },
    "dielectric": {
        "epsilon_ionic": [
            [
                1.89093376,
                -1.4e-07,
                -7e-08
            ],
            [
                -1.4e-07,
                1.89113817,
                -6.734e-05
            ],
            [
                -7e-08,
                -6.734e-05,
                1.12880427
            ]
        ],
        "epsilon_ionic_avg": 1.6369587333333335,
        "epsilon_ionic_eig": [
            1.890933759904132,
            1.8911381760442858,
            1.1288042640515825
        ],
        "epsilon_electronic": [
            [
                2.73470179,
                2.7e-07,
                -0.0
            ],
            [
                2.7e-07,
                2.73470129,
                0.0
            ],
            [
                0.0,
                0.0,
                2.70072759
            ]
        ],
        "epsilon_electronic_avg": 2.7233768899999995,
        "epsilon_electronic_eig": [
            2.7347019079673895,
            2.73470117203261,
            2.70072759
        ]
    },
    "phonon": {
        "lowest_freq": -0.12670815121166232,
        "frequency": [
            -0.12670815121166232,
            -0.12670813394851624,
            -0.016878366844762203,
            1.4964986386830885,
            1.4964987987314238,
            2.313456000285144,
            3.1387754099625527,
            3.191188364423513,
            3.1911886784258137,
            3.491557694632712,
            3.4915579746224963,
            4.011893797887454,
            8.393899282746348,
            8.615556148473678,
            8.615557127145735,
            9.372961174653522,
            9.3729617483039,
            9.600083066785357,
            9.600084008736001,
            10.060804876376242,
            10.060805216468493,
            10.089925158298144,
            10.23816084534957,
            10.238161740530323,
            10.587522012277482,
            27.50978382593494,
            27.50978578044056,
            28.37256181722398,
            28.37256366922546,
            28.786365429749527,
            28.97109650635484,
            30.38477637571517,
            30.64828432853124
        ]
    },
    "born_effective_charge": {
        "avg_abs_trace": 1.682191515151515,
        "tensors": [
            [
                [
                    3.2395,
                    0.0,
                    0.0
                ],
                [
                    0.0,
                    3.2397,
                    -0.00011
                ],
                [
                    0.0,
                    -0.0,
                    2.67837
                ]
            ],
            [
                [
                    3.11774,
                    0.00015,
                    -0.0001
                ],
                [
                    0.0,
                    3.11794,
                    -0.00017
                ],
                [
                    0.0,
                    -0.0,
                    3.06426
                ]
            ],
            [
                [
                    3.11774,
                    -0.00015,
                    0.0001
                ],
                [
                    0.0,
                    3.11712,
                    -0.0002
                ],
                [
                    0.0,
                    -0.0,
                    3.0638
                ]
            ],
            [
                [
                    -1.84262,
                    0.70856,
                    -0.65064
                ],
                [
                    0.70794,
                    -1.02552,
                    0.37572
                ],
                [
                    -0.61056,
                    0.3525,
                    -0.88568
                ]
            ],
            [
                [
                    -0.61686,
                    -0.00057,
                    3e-05
                ],
                [
                    -0.0,
                    -2.25198,
                    -0.7512
                ],
                [
                    -0.0,
                    -0.70501,
                    -0.88568
                ]
            ],
            [
                [
                    -0.43467,
                    0.00019,
                    4e-05
                ],
                [
                    -0.0,
                    -0.4346,
                    9e-05
                ],
                [
                    0.0,
                    -0.0,
                    -1.74385
                ]
            ],
            [
                [
                    -1.84262,
                    -0.70856,
                    0.65064
                ],
                [
                    -0.70814,
                    -1.02539,
                    0.37562
                ],
                [
                    0.61161,
                    0.35311,
                    -0.88559
                ]
            ],
            [
                [
                    -1.84334,
                    -0.70828,
                    0.65051
                ],
                [
                    -0.70794,
                    -1.02552,
                    0.37572
                ],
                [
                    0.61056,
                    0.3525,
                    -0.88568
                ]
            ],
            [
                [
                    -0.43467,
                    -0.00019,
                    -4e-05
                ],
                [
                    -0.0,
                    -0.4344,
                    -0.00012
                ],
                [
                    0.0,
                    -0.0,
                    -1.74875
                ]
            ],
            [
                [
                    -0.61686,
                    0.00057,
                    -3e-05
                ],
                [
                    -0.0,
                    -2.25196,
                    -0.75097
                ],
                [
                    -0.0,
                    -0.70623,
                    -0.88559
                ]
            ],
            [
                [
                    -1.84334,
                    0.70828,
                    -0.65051
                ],
                [
                    0.70814,
                    -1.02539,
                    0.37562
                ],
                [
                    -0.61161,
                    0.35311,
                    -0.88559
                ]
            ]
        ]
    },
    "band_gap": 4.1127,
    "is_direct": false,
    "formula": "Mg(ReO4)2"
}