{
    "mp_id": "mp-7899",
    "nelements": 3,
    "nsites": 16,
    "elements": [
        "Ba",
        "Cd",
        "O"
    ],
    "structure": {
        "@module": "pymatgen.core.structure",
        "@class": "Structure",
        "charge": null,
        "lattice": {
            "matrix": [
                [
                    6.1436342,
                    0.0,
                    0.0
                ],
                [
                    0.0,
                    3.66461452,
                    0.0
                ],
                [
                    0.0,
                    0.0,
                    11.9634662
                ]
            ],
            "a": 6.1436342,
            "b": 3.66461452,
            "c": 11.9634662,
            "alpha": 90.0,
            "beta": 90.0,
            "gamma": 90.0,
            "volume": 269.3460892987726
        },
        "sites": [
            {
                "species": [
                    {
                        "element": "Ba",
                        "occu": 1
                    }
                ],
                "abc": [
                    0.89608159,
                    0.25,
                    0.85740582
                ],
                "xyz": [
                    5.505197502314378,
                    0.91615363,
                    10.257545547253283
                ],
                "label": "Ba",
                "properties": {}
            },
            {
                "species": [
                    {
                        "element": "Ba",
                        "occu": 1
                    }
                ],
                "abc": [
                    0.10391841,
                    0.75,
                    0.14259418
                ],
                "xyz": [
                    0.6384366976856221,
                    2.74846089,
                    1.7059206527467157
                ],
                "label": "Ba",
                "properties": {}
            },
            {
                "species": [
                    {
                        "element": "Ba",
                        "occu": 1
                    }
                ],
                "abc": [
                    0.39608159,
                    0.25,
                    0.64259418
                ],
                "xyz": [
                    2.433380402314378,
                    0.91615363,
                    7.687653752746716
                ],
                "label": "Ba",
                "properties": {}
            },
            {
                "species": [
                    {
                        "element": "Ba",
                        "occu": 1
                    }
                ],
                "abc": [
                    0.60391841,
                    0.75,
                    0.35740582
                ],
                "xyz": [
                    3.7102537976856222,
                    2.74846089,
                    4.2758124472532835
                ],
                "label": "Ba",
                "properties": {}
            },
            {
                "species": [
                    {
                        "element": "Cd",
                        "occu": 1
                    }
                ],
                "abc": [
                    0.40603805,
                    0.75,
                    0.89341555
                ],
                "xyz": [
                    2.49454925048131,
                    2.74846089,
                    10.688346734979408
                ],
                "label": "Cd",
                "properties": {}
            },
            {
                "species": [
                    {
                        "element": "Cd",
                        "occu": 1
                    }
                ],
                "abc": [
                    0.90603805,
                    0.75,
                    0.60658445
                ],
                "xyz": [
                    5.56636635048131,
                    2.74846089,
                    7.25685256502059
                ],
                "label": "Cd",
                "properties": {}
            },
            {
                "species": [
                    {
                        "element": "Cd",
                        "occu": 1
                    }
                ],
                "abc": [
                    0.59396195,
                    0.25,
                    0.10658445
                ],
                "xyz": [
                    3.6490849495186897,
                    0.91615363,
                    1.27511946502059
                ],
                "label": "Cd",
                "properties": {}
            },
            {
                "species": [
                    {
                        "element": "Cd",
                        "occu": 1
                    }
                ],
                "abc": [
                    0.09396195,
                    0.25,
                    0.39341555
                ],
                "xyz": [
                    0.57726784951869,
                    0.91615363,
                    4.706613634979409
                ],
                "label": "Cd",
                "properties": {}
            },
            {
                "species": [
                    {
                        "element": "O",
                        "occu": 1
                    }
                ],
                "abc": [
                    0.77865756,
                    0.25,
                    0.51739546
                ],
                "xyz": [
                    4.783787215704552,
                    0.91615363,
                    6.189843097743452
                ],
                "label": "O",
                "properties": {}
            },
            {
                "species": [
                    {
                        "element": "O",
                        "occu": 1
                    }
                ],
                "abc": [
                    0.22134244,
                    0.75,
                    0.48260454
                ],
                "xyz": [
                    1.3598469842954481,
                    2.74846089,
                    5.773623102256548
                ],
                "label": "O",
                "properties": {}
            },
            {
                "species": [
                    {
                        "element": "O",
                        "occu": 1
                    }
                ],
                "abc": [
                    0.27865756,
                    0.25,
                    0.98260454
                ],
                "xyz": [
                    1.7119701157045522,
                    0.91615363,
                    11.755356202256547
                ],
                "label": "O",
                "properties": {}
            },
            {
                "species": [
                    {
                        "element": "O",
                        "occu": 1
                    }
                ],
                "abc": [
                    0.72134244,
                    0.75,
                    0.01739546
                ],
                "xyz": [
                    4.4316640842954484,
                    2.74846089,
                    0.208109997743452
                ],
                "label": "O",
                "properties": {}
            },
            {
                "species": [
                    {
                        "element": "O",
                        "occu": 1
                    }
                ],
                "abc": [
                    0.35562975,
                    0.25,
                    0.24878449
                ],
                "xyz": [
                    2.18485909463745,
                    0.91615363,
                    2.976324837199238
                ],
                "label": "O",
                "properties": {}
            },
            {
                "species": [
                    {
                        "element": "O",
                        "occu": 1
                    }
                ],
                "abc": [
                    0.14437025,
                    0.75,
                    0.74878449
                ],
                "xyz": [
                    0.8869580053625501,
                    2.74846089,
                    8.958057937199237
                ],
                "label": "O",
                "properties": {}
            },
            {
                "species": [
                    {
                        "element": "O",
                        "occu": 1
                    }
                ],
                "abc": [
                    0.85562975,
                    0.25,
                    0.25121551
                ],
                "xyz": [
                    5.25667619463745,
                    0.91615363,
                    3.0054082628007617
                ],
                "label": "O",
                "properties": {}
            },
            {
                "species": [
                    {
                        "element": "O",
                        "occu": 1
                    }
                ],
                "abc": [
                    0.64437025,
                    0.75,
                    0.75121551
                ],
                "xyz": [
                    3.9587751053625504,
                    2.74846089,
                    8.987141362800761
                ],
                "label": "O",
                "properties": {}
            }
        ]
    },
    "spacegroup": {
        "source": "spglib",
        "symbol": "Pnma",
        "number": 62,
        "point_group": "mmm",
        "crystal_system": "orthorhombic",
        "hall": "-P 2ac 2n"
    },
    "dielectric": {
        "epsilon_ionic": [
            [
                13.71983245,
                -3.7e-07,
                1.2e-07
            ],
            [
                -3.7e-07,
                10.71985117,
                -1.5e-07
            ],
            [
                1.2e-07,
                -1.5e-07,
                12.10989902
            ]
        ],
        "epsilon_ionic_avg": 12.183194213333337,
        "epsilon_ionic_eig": [
            13.71983245000006,
            10.719851169999941,
            12.109899020000007
        ],
        "epsilon_electronic": [
            [
                5.38381892,
                0.0,
                0.0
            ],
            [
                0.0,
                5.27755274,
                0.0
            ],
            [
                0.0,
                0.0,
                5.36134071
            ]
        ],
        "epsilon_electronic_avg": 5.340904123333334,
        "epsilon_electronic_eig": [
            5.38381892,
            5.27755274,
            5.36134071
        ]
    },
    "phonon": {
        "lowest_freq": -0.02698259783982526,
        "frequency": [
            -0.02698259783982526,
            -0.012794936473217835,
            -0.011600917482262045,
            1.542346819908205,
            1.6268478877127184,
            2.0256942142419874,
            2.0521369996657914,
            2.471797209234772,
            2.493175834236048,
            2.6238483069299745,
            2.656182583789209,
            2.6640053764444773,
            2.9593273735940477,
            3.0656543326062695,
            3.074340177746391,
            3.207587298250589,
            3.3797006502831435,
            3.6242021343326547,
            3.7657953263681136,
            3.82601723413606,
            3.917017686542508,
            4.68174583794321,
            4.775343827877222,
            5.272682472039002,
            6.0625079835674445,
            6.181558624122245,
            6.386080330189818,
            6.517394418721691,
            6.907301453354323,
            6.9467740997369765,
            6.954141241177534,
            6.958121346572074,
            7.138100126159207,
            8.001542398543853,
            8.311627502639075,
            9.063070277438039,
            9.416779380462277,
            9.450650197967532,
            9.473576899759252,
            9.96679519882241,
            10.278789080348416,
            10.313605047596974,
            10.568549806015225,
            11.846874211886604,
            12.045665049697888,
            12.328020769931072,
            13.490182186754671,
            13.993855739892744
        ]
    },
    "born_effective_charge": {
        "avg_abs_trace": 2.4807016666666666,
        "tensors": [
            [
                [
                    2.73799,
                    0.0,
                    -0.03191
                ],
                [
                    0.00032,
                    2.89031,
                    0.0002
                ],
                [
                    -0.16737,
                    0.0,
                    2.44618
                ]
            ],
            [
                [
                    2.73828,
                    -0.0,
                    -0.03213
                ],
                [
                    -0.00032,
                    2.89031,
                    -0.0002
                ],
                [
                    -0.16733,
                    0.0,
                    2.44631
                ]
            ],
            [
                [
                    2.73799,
                    0.0,
                    0.03191
                ],
                [
                    0.00032,
                    2.89031,
                    -0.0002
                ],
                [
                    0.16733,
                    0.0,
                    2.44631
                ]
            ],
            [
                [
                    2.73828,
                    -0.0,
                    0.03213
                ],
                [
                    -0.00032,
                    2.89031,
                    0.0002
                ],
                [
                    0.16737,
                    0.0,
                    2.44618
                ]
            ],
            [
                [
                    2.23752,
                    -0.0,
                    0.14017
                ],
                [
                    -6e-05,
                    2.11244,
                    8e-05
                ],
                [
                    0.2485,
                    -0.0,
                    2.45943
                ]
            ],
            [
                [
                    2.23752,
                    -0.0,
                    -0.14017
                ],
                [
                    -6e-05,
                    2.11244,
                    -8e-05
                ],
                [
                    -0.24856,
                    0.0,
                    2.45948
                ]
            ],
            [
                [
                    2.23773,
                    0.0,
                    0.13998
                ],
                [
                    6e-05,
                    2.11244,
                    -8e-05
                ],
                [
                    0.24856,
                    -0.0,
                    2.45948
                ]
            ],
            [
                [
                    2.23773,
                    0.0,
                    -0.13998
                ],
                [
                    6e-05,
                    2.11244,
                    8e-05
                ],
                [
                    -0.2485,
                    0.0,
                    2.45943
                ]
            ],
            [
                [
                    -2.23145,
                    -0.0,
                    0.01887
                ],
                [
                    0.00011,
                    -2.6852,
                    0.0006
                ],
                [
                    0.13503,
                    0.0,
                    -2.45911
                ]
            ],
            [
                [
                    -2.23133,
                    -0.0,
                    0.0191
                ],
                [
                    -0.00011,
                    -2.6852,
                    -0.0006
                ],
                [
                    0.13492,
                    0.0,
                    -2.45903
                ]
            ],
            [
                [
                    -2.23145,
                    -0.0,
                    -0.01887
                ],
                [
                    0.00011,
                    -2.6852,
                    -0.0006
                ],
                [
                    -0.13492,
                    0.0,
                    -2.45903
                ]
            ],
            [
                [
                    -2.23133,
                    -0.0,
                    -0.0191
                ],
                [
                    -0.00011,
                    -2.6852,
                    0.0006
                ],
                [
                    -0.13503,
                    0.0,
                    -2.45911
                ]
            ],
            [
                [
                    -2.74469,
                    0.0,
                    0.23125
                ],
                [
                    0.00036,
                    -2.31755,
                    -0.00026
                ],
                [
                    0.01793,
                    0.0,
                    -2.44653
                ]
            ],
            [
                [
                    -2.74405,
                    -0.0,
                    -0.23021
                ],
                [
                    -0.00036,
                    -2.31755,
                    -0.00026
                ],
                [
                    -0.01793,
                    -0.0,
                    -2.44653
                ]
            ],
            [
                [
                    -2.74469,
                    0.0,
                    -0.23125
                ],
                [
                    0.00036,
                    -2.31755,
                    0.00026
                ],
                [
                    -0.01829,
                    0.0,
                    -2.44673
                ]
            ],
            [
                [
                    -2.74405,
                    -0.0,
                    0.23021
                ],
                [
                    -0.00036,
                    -2.31755,
                    0.00026
                ],
                [
                    0.01829,
                    0.0,
                    -2.44673
                ]
            ]
        ]
    },
    "band_gap": 0.9438999999999997,
    "is_direct": false,
    "formula": "BaCdO2"
}