{
    "mp_id": "mp-757031",
    "nelements": 3,
    "nsites": 28,
    "elements": [
        "Mg",
        "O",
        "Ti"
    ],
    "structure": {
        "@module": "pymatgen.core.structure",
        "@class": "Structure",
        "charge": null,
        "lattice": {
            "matrix": [
                [
                    6.00687273,
                    0.0,
                    0.0
                ],
                [
                    0.0,
                    6.00687273,
                    0.0
                ],
                [
                    0.0,
                    0.0,
                    8.44429112
                ]
            ],
            "a": 6.00687273,
            "b": 6.00687273,
            "c": 8.44429112,
            "alpha": 90.0,
            "beta": 90.0,
            "gamma": 90.0,
            "volume": 304.6913031760835
        },
        "sites": [
            {
                "species": [
                    {
                        "element": "Mg",
                        "occu": 1
                    }
                ],
                "abc": [
                    0.0,
                    0.24575738,
                    0.0
                ],
                "xyz": [
                    0.0,
                    1.4762333041182476,
                    0.0
                ],
                "label": "Mg",
                "properties": {}
            },
            {
                "species": [
                    {
                        "element": "Mg",
                        "occu": 1
                    }
                ],
                "abc": [
                    0.0,
                    0.75424262,
                    0.5
                ],
                "xyz": [
                    0.0,
                    4.530639425881753,
                    4.22214556
                ],
                "label": "Mg",
                "properties": {}
            },
            {
                "species": [
                    {
                        "element": "Mg",
                        "occu": 1
                    }
                ],
                "abc": [
                    0.24575738,
                    0.0,
                    0.75
                ],
                "xyz": [
                    1.4762333041182476,
                    0.0,
                    6.33321834
                ],
                "label": "Mg",
                "properties": {}
            },
            {
                "species": [
                    {
                        "element": "Mg",
                        "occu": 1
                    }
                ],
                "abc": [
                    0.25100511,
                    0.25100511,
                    0.375
                ],
                "xyz": [
                    1.5077557503496504,
                    1.5077557503496504,
                    3.16660917
                ],
                "label": "Mg",
                "properties": {}
            },
            {
                "species": [
                    {
                        "element": "Mg",
                        "occu": 1
                    }
                ],
                "abc": [
                    0.25100511,
                    0.74899489,
                    0.125
                ],
                "xyz": [
                    1.5077557503496504,
                    4.49911697965035,
                    1.05553639
                ],
                "label": "Mg",
                "properties": {}
            },
            {
                "species": [
                    {
                        "element": "Mg",
                        "occu": 1
                    }
                ],
                "abc": [
                    0.74899489,
                    0.25100511,
                    0.625
                ],
                "xyz": [
                    4.49911697965035,
                    1.5077557503496504,
                    5.277681950000001
                ],
                "label": "Mg",
                "properties": {}
            },
            {
                "species": [
                    {
                        "element": "Mg",
                        "occu": 1
                    }
                ],
                "abc": [
                    0.74899489,
                    0.74899489,
                    0.875
                ],
                "xyz": [
                    4.49911697965035,
                    4.49911697965035,
                    7.3887547300000005
                ],
                "label": "Mg",
                "properties": {}
            },
            {
                "species": [
                    {
                        "element": "Mg",
                        "occu": 1
                    }
                ],
                "abc": [
                    0.75424262,
                    0.0,
                    0.25
                ],
                "xyz": [
                    4.530639425881753,
                    0.0,
                    2.11107278
                ],
                "label": "Mg",
                "properties": {}
            },
            {
                "species": [
                    {
                        "element": "Ti",
                        "occu": 1
                    }
                ],
                "abc": [
                    0.23959969,
                    0.5,
                    0.75
                ],
                "xyz": [
                    1.439244843977454,
                    3.003436365,
                    6.33321834
                ],
                "label": "Ti",
                "properties": {}
            },
            {
                "species": [
                    {
                        "element": "Ti",
                        "occu": 1
                    }
                ],
                "abc": [
                    0.5,
                    0.23959969,
                    0.0
                ],
                "xyz": [
                    3.003436365,
                    1.439244843977454,
                    0.0
                ],
                "label": "Ti",
                "properties": {}
            },
            {
                "species": [
                    {
                        "element": "Ti",
                        "occu": 1
                    }
                ],
                "abc": [
                    0.5,
                    0.76040031,
                    0.5
                ],
                "xyz": [
                    3.003436365,
                    4.567627886022547,
                    4.22214556
                ],
                "label": "Ti",
                "properties": {}
            },
            {
                "species": [
                    {
                        "element": "Ti",
                        "occu": 1
                    }
                ],
                "abc": [
                    0.76040031,
                    0.5,
                    0.25
                ],
                "xyz": [
                    4.567627886022547,
                    3.003436365,
                    2.11107278
                ],
                "label": "Ti",
                "properties": {}
            },
            {
                "species": [
                    {
                        "element": "O",
                        "occu": 1
                    }
                ],
                "abc": [
                    0.02405971,
                    0.26072473,
                    0.7534244
                ],
                "xyz": [
                    0.1445236158907083,
                    1.5661402706736132,
                    6.362134970511328
                ],
                "label": "O",
                "properties": {}
            },
            {
                "species": [
                    {
                        "element": "O",
                        "occu": 1
                    }
                ],
                "abc": [
                    0.02405971,
                    0.73927527,
                    0.7465756
                ],
                "xyz": [
                    0.1445236158907083,
                    4.440732459326387,
                    6.304301709488673
                ],
                "label": "O",
                "properties": {}
            },
            {
                "species": [
                    {
                        "element": "O",
                        "occu": 1
                    }
                ],
                "abc": [
                    0.25978222,
                    0.4819779,
                    0.98559154
                ],
                "xyz": [
                    1.5604787330568608,
                    2.895179903972667,
                    8.322621889169126
                ],
                "label": "O",
                "properties": {}
            },
            {
                "species": [
                    {
                        "element": "O",
                        "occu": 1
                    }
                ],
                "abc": [
                    0.25978222,
                    0.5180221,
                    0.51440846
                ],
                "xyz": [
                    1.5604787330568608,
                    3.1116928260273333,
                    4.3438147908308755
                ],
                "label": "O",
                "properties": {}
            },
            {
                "species": [
                    {
                        "element": "O",
                        "occu": 1
                    }
                ],
                "abc": [
                    0.26072473,
                    0.02405971,
                    0.9965756
                ],
                "xyz": [
                    1.5661402706736132,
                    0.1445236158907083,
                    8.415374489488674
                ],
                "label": "O",
                "properties": {}
            },
            {
                "species": [
                    {
                        "element": "O",
                        "occu": 1
                    }
                ],
                "abc": [
                    0.26072473,
                    0.97594029,
                    0.5034244
                ],
                "xyz": [
                    1.5661402706736132,
                    5.862349114109293,
                    4.251062190511329
                ],
                "label": "O",
                "properties": {}
            },
            {
                "species": [
                    {
                        "element": "O",
                        "occu": 1
                    }
                ],
                "abc": [
                    0.4819779,
                    0.25978222,
                    0.76440846
                ],
                "xyz": [
                    2.895179903972667,
                    1.5604787330568608,
                    6.454887570830875
                ],
                "label": "O",
                "properties": {}
            },
            {
                "species": [
                    {
                        "element": "O",
                        "occu": 1
                    }
                ],
                "abc": [
                    0.4819779,
                    0.74021778,
                    0.73559154
                ],
                "xyz": [
                    2.895179903972667,
                    4.44639399694314,
                    6.211549109169126
                ],
                "label": "O",
                "properties": {}
            },
            {
                "species": [
                    {
                        "element": "O",
                        "occu": 1
                    }
                ],
                "abc": [
                    0.5180221,
                    0.25978222,
                    0.23559154
                ],
                "xyz": [
                    3.1116928260273333,
                    1.5604787330568608,
                    1.9894035491691249
                ],
                "label": "O",
                "properties": {}
            },
            {
                "species": [
                    {
                        "element": "O",
                        "occu": 1
                    }
                ],
                "abc": [
                    0.5180221,
                    0.74021778,
                    0.26440846
                ],
                "xyz": [
                    3.1116928260273333,
                    4.44639399694314,
                    2.2327420108308753
                ],
                "label": "O",
                "properties": {}
            },
            {
                "species": [
                    {
                        "element": "O",
                        "occu": 1
                    }
                ],
                "abc": [
                    0.73927527,
                    0.97594029,
                    0.4965756
                ],
                "xyz": [
                    4.440732459326387,
                    5.862349114109293,
                    4.193228929488672
                ],
                "label": "O",
                "properties": {}
            },
            {
                "species": [
                    {
                        "element": "O",
                        "occu": 1
                    }
                ],
                "abc": [
                    0.73927527,
                    0.02405971,
                    0.0034244
                ],
                "xyz": [
                    4.440732459326387,
                    0.1445236158907083,
                    0.028916630511328003
                ],
                "label": "O",
                "properties": {}
            },
            {
                "species": [
                    {
                        "element": "O",
                        "occu": 1
                    }
                ],
                "abc": [
                    0.74021778,
                    0.4819779,
                    0.01440846
                ],
                "xyz": [
                    4.44639399694314,
                    2.895179903972667,
                    0.1216692308308752
                ],
                "label": "O",
                "properties": {}
            },
            {
                "species": [
                    {
                        "element": "O",
                        "occu": 1
                    }
                ],
                "abc": [
                    0.74021778,
                    0.5180221,
                    0.48559154
                ],
                "xyz": [
                    4.44639399694314,
                    3.1116928260273333,
                    4.100476329169125
                ],
                "label": "O",
                "properties": {}
            },
            {
                "species": [
                    {
                        "element": "O",
                        "occu": 1
                    }
                ],
                "abc": [
                    0.97594029,
                    0.26072473,
                    0.2465756
                ],
                "xyz": [
                    5.862349114109293,
                    1.5661402706736132,
                    2.0821561494886724
                ],
                "label": "O",
                "properties": {}
            },
            {
                "species": [
                    {
                        "element": "O",
                        "occu": 1
                    }
                ],
                "abc": [
                    0.97594029,
                    0.73927527,
                    0.2534244
                ],
                "xyz": [
                    5.862349114109293,
                    4.440732459326387,
                    2.139989410511328
                ],
                "label": "O",
                "properties": {}
            }
        ]
    },
    "spacegroup": {
        "source": "spglib",
        "symbol": "P4_122",
        "number": 91,
        "point_group": "422",
        "crystal_system": "tetragonal",
        "hall": "P 4w 2c"
    },
    "dielectric": {
        "epsilon_ionic": [
            [
                7.38349683,
                -0.0,
                0.0
            ],
            [
                -0.0,
                7.3833868,
                0.0
            ],
            [
                0.0,
                0.0,
                9.26417779
            ]
        ],
        "epsilon_ionic_avg": 8.010353806666666,
        "epsilon_ionic_eig": [
            7.38349683,
            7.3833868,
            9.26417779
        ],
        "epsilon_electronic": [
            [
                4.02922359,
                -0.0,
                0.0
            ],
            [
                0.0,
                4.02922359,
                -0.0
            ],
            [
                0.0,
                0.0,
                4.09354265
            ]
        ],
        "epsilon_electronic_avg": 4.050663276666667,
        "epsilon_electronic_eig": [
            4.02922359,
            4.02922359,
            4.09354265
        ]
    },
    "phonon": {
        "lowest_freq": -0.04583366265345997,
        "frequency": [
            -0.04583366265345997,
            -0.04583366265345997,
            -0.04173482300608643,
            4.2301491134342,
            4.383413184437737,
            4.954785894689343,
            5.050717269968266,
            5.050717269968266,
            5.204958690996149,
            5.597104900466635,
            6.84901194642894,
            6.963680536816693,
            7.09668610370129,
            7.09668610370129,
            7.421031075837062,
            7.527026617871496,
            7.527026617871496,
            7.800114673729705,
            7.800114673729705,
            7.927917669743724,
            8.16996347562765,
            8.16996347562765,
            8.251412593993694,
            8.476009954392689,
            8.476009954392689,
            8.65193197146545,
            9.081266179058751,
            9.172289662410853,
            9.65584502567093,
            9.65584502567093,
            9.944850175176029,
            10.013413352286035,
            10.351708891446263,
            10.551962000378497,
            10.62589348692022,
            10.62589348692022,
            11.275447089055193,
            11.331995364080136,
            11.333007395085744,
            11.333007395085744,
            11.465868985887079,
            11.701590865799197,
            11.922757853843873,
            12.03686438246871,
            12.03686438246871,
            12.383693443527013,
            12.551186886533,
            12.69180420688222,
            12.69180420688222,
            13.089210080445676,
            13.089210080445676,
            13.307065744090405,
            13.374121201186323,
            13.374121201186323,
            13.631320524873262,
            14.180113186585237,
            14.180113186585237,
            14.192324872869893,
            14.212182871803895,
            14.69239773599999,
            14.700831408002713,
            15.452323487837747,
            15.452323487837747,
            16.055975557211813,
            16.17241690891505,
            16.346246581996642,
            16.742842323099335,
            16.763066623877492,
            16.81026814434307,
            16.81026814434307,
            17.09760657998407,
            17.677208906790813,
            17.677208906790813,
            18.488310375701623,
            18.49326663601751,
            18.49326663601751,
            18.64588871056764,
            19.539081106931395,
            19.539081106931395,
            19.549181552268294,
            19.599160156284093,
            21.03046417212252,
            21.03046417212252,
            21.307415771327072
        ]
    },
    "born_effective_charge": {
        "avg_abs_trace": 2.482655952380952,
        "tensors": [
            [
                [
                    2.54997,
                    4e-05,
                    -0.71368
                ],
                [
                    0.0,
                    1.28392,
                    -0.0
                ],
                [
                    -0.43917,
                    1e-05,
                    1.86768
                ]
            ],
            [
                [
                    2.54997,
                    -4e-05,
                    0.71368
                ],
                [
                    0.0,
                    1.28392,
                    -0.0
                ],
                [
                    0.43917,
                    -1e-05,
                    1.86768
                ]
            ],
            [
                [
                    1.28392,
                    0.0,
                    0.0
                ],
                [
                    4e-05,
                    2.54993,
                    0.71374
                ],
                [
                    1e-05,
                    0.43917,
                    1.86768
                ]
            ],
            [
                [
                    2.302,
                    -0.12076,
                    0.33065
                ],
                [
                    -0.12075,
                    2.30202,
                    -0.33068
                ],
                [
                    -0.14915,
                    0.14915,
                    2.24449
                ]
            ],
            [
                [
                    2.302,
                    0.12076,
                    -0.33065
                ],
                [
                    0.12079,
                    2.30202,
                    -0.33064
                ],
                [
                    0.14915,
                    0.14915,
                    2.24449
                ]
            ],
            [
                [
                    2.302,
                    0.1208,
                    0.33062
                ],
                [
                    0.12075,
                    2.30202,
                    0.33068
                ],
                [
                    -0.14915,
                    -0.14915,
                    2.24449
                ]
            ],
            [
                [
                    2.302,
                    -0.1208,
                    -0.33062
                ],
                [
                    -0.12079,
                    2.30202,
                    0.33064
                ],
                [
                    0.14915,
                    -0.14915,
                    2.24449
                ]
            ],
            [
                [
                    1.28392,
                    0.0,
                    0.0
                ],
                [
                    -4e-05,
                    2.54993,
                    -0.71374
                ],
                [
                    -1e-05,
                    -0.43917,
                    1.86768
                ]
            ],
            [
                [
                    4.1555,
                    0.0,
                    0.0
                ],
                [
                    0.00026,
                    4.68582,
                    -1.08665
                ],
                [
                    3e-05,
                    -1.44763,
                    4.67669
                ]
            ],
            [
                [
                    4.68585,
                    0.00025,
                    1.08662
                ],
                [
                    0.0,
                    4.15541,
                    -0.0
                ],
                [
                    1.44763,
                    3e-05,
                    4.67669
                ]
            ],
            [
                [
                    4.68585,
                    -0.00025,
                    -1.08662
                ],
                [
                    0.0,
                    4.1551,
                    -0.0
                ],
                [
                    -1.44763,
                    -3e-05,
                    4.67669
                ]
            ],
            [
                [
                    4.15521,
                    0.0,
                    0.0
                ],
                [
                    -0.00026,
                    4.68582,
                    1.08665
                ],
                [
                    -3e-05,
                    1.44763,
                    4.67669
                ]
            ],
            [
                [
                    -2.44662,
                    -0.73733,
                    -0.02745
                ],
                [
                    -0.71903,
                    -2.34687,
                    -0.07552
                ],
                [
                    -0.01306,
                    0.13419,
                    -1.59292
                ]
            ],
            [
                [
                    -2.44662,
                    0.73733,
                    0.02745
                ],
                [
                    0.71871,
                    -2.34704,
                    -0.07561
                ],
                [
                    0.01304,
                    0.13422,
                    -1.59291
                ]
            ],
            [
                [
                    -1.97469,
                    0.5355,
                    -0.13896
                ],
                [
                    0.50267,
                    -1.87107,
                    0.2574
                ],
                [
                    -0.34344,
                    0.29719,
                    -2.80149
                ]
            ],
            [
                [
                    -1.97469,
                    -0.5355,
                    0.13896
                ],
                [
                    -0.50266,
                    -1.87086,
                    0.25718
                ],
                [
                    0.34336,
                    0.29712,
                    -2.80155
                ]
            ],
            [
                [
                    -2.34688,
                    -0.71898,
                    0.07552
                ],
                [
                    -0.73737,
                    -2.44661,
                    0.02756
                ],
                [
                    -0.13422,
                    0.01304,
                    -1.59291
                ]
            ],
            [
                [
                    -2.34688,
                    0.71898,
                    -0.07552
                ],
                [
                    0.7374,
                    -2.44701,
                    0.02758
                ],
                [
                    0.13419,
                    0.01306,
                    -1.59292
                ]
            ],
            [
                [
                    -1.87108,
                    0.50263,
                    -0.25739
                ],
                [
                    0.53551,
                    -1.97466,
                    0.13891
                ],
                [
                    -0.29712,
                    0.34336,
                    -2.80155
                ]
            ],
            [
                [
                    -1.87108,
                    -0.50263,
                    0.25739
                ],
                [
                    -0.53554,
                    -1.97483,
                    0.13907
                ],
                [
                    0.29719,
                    0.34344,
                    -2.80149
                ]
            ],
            [
                [
                    -1.87087,
                    -0.50262,
                    -0.25716
                ],
                [
                    -0.53551,
                    -1.97466,
                    -0.13891
                ],
                [
                    -0.29719,
                    -0.34344,
                    -2.80149
                ]
            ],
            [
                [
                    -1.87087,
                    0.50262,
                    0.25716
                ],
                [
                    0.53554,
                    -1.97483,
                    -0.13907
                ],
                [
                    0.29712,
                    -0.34336,
                    -2.80155
                ]
            ],
            [
                [
                    -2.34706,
                    -0.71866,
                    -0.07561
                ],
                [
                    -0.7374,
                    -2.44701,
                    -0.02758
                ],
                [
                    0.13422,
                    -0.01304,
                    -1.59291
                ]
            ],
            [
                [
                    -2.34706,
                    0.71866,
                    0.07561
                ],
                [
                    0.73737,
                    -2.44661,
                    -0.02756
                ],
                [
                    -0.13419,
                    -0.01306,
                    -1.59292
                ]
            ],
            [
                [
                    -1.97485,
                    -0.53554,
                    -0.13913
                ],
                [
                    -0.50267,
                    -1.87107,
                    -0.2574
                ],
                [
                    -0.34336,
                    -0.29712,
                    -2.80155
                ]
            ],
            [
                [
                    -1.97485,
                    0.53554,
                    0.13913
                ],
                [
                    0.50266,
                    -1.87086,
                    -0.25718
                ],
                [
                    0.34344,
                    -0.29719,
                    -2.80149
                ]
            ],
            [
                [
                    -2.44703,
                    0.73738,
                    -0.02747
                ],
                [
                    0.71903,
                    -2.34687,
                    0.07552
                ],
                [
                    -0.01304,
                    -0.13422,
                    -1.59291
                ]
            ],
            [
                [
                    -2.44703,
                    -0.73738,
                    0.02747
                ],
                [
                    -0.71871,
                    -2.34704,
                    0.07561
                ],
                [
                    0.01306,
                    -0.13419,
                    -1.59292
                ]
            ]
        ]
    },
    "band_gap": 3.5677,
    "is_direct": true,
    "formula": "Mg2TiO4"
}