{
    "mp_id": "mp-754853",
    "nelements": 3,
    "nsites": 20,
    "elements": [
        "Ca",
        "Hf",
        "O"
    ],
    "structure": {
        "@module": "pymatgen.core.structure",
        "@class": "Structure",
        "charge": null,
        "lattice": {
            "matrix": [
                [
                    5.75451293,
                    0.0,
                    0.0
                ],
                [
                    0.0,
                    7.98979488,
                    0.0
                ],
                [
                    0.0,
                    0.0,
                    5.5622499
                ]
            ],
            "a": 5.75451293,
            "b": 7.98979488,
            "c": 5.5622499,
            "alpha": 90.0,
            "beta": 90.0,
            "gamma": 90.0,
            "volume": 255.73766587688183
        },
        "sites": [
            {
                "species": [
                    {
                        "element": "Ca",
                        "occu": 1
                    }
                ],
                "abc": [
                    0.94895005,
                    0.75,
                    0.01368062
                ],
                "xyz": [
                    5.460745332649147,
                    5.99234616,
                    0.076095027226938
                ],
                "label": "Ca",
                "properties": {}
            },
            {
                "species": [
                    {
                        "element": "Ca",
                        "occu": 1
                    }
                ],
                "abc": [
                    0.44895005,
                    0.75,
                    0.48631938
                ],
                "xyz": [
                    2.5834888676491463,
                    5.99234616,
                    2.705029922773062
                ],
                "label": "Ca",
                "properties": {}
            },
            {
                "species": [
                    {
                        "element": "Ca",
                        "occu": 1
                    }
                ],
                "abc": [
                    0.55104995,
                    0.25,
                    0.51368062
                ],
                "xyz": [
                    3.1710240623508534,
                    1.99744872,
                    2.857219977226938
                ],
                "label": "Ca",
                "properties": {}
            },
            {
                "species": [
                    {
                        "element": "Ca",
                        "occu": 1
                    }
                ],
                "abc": [
                    0.05104995,
                    0.25,
                    0.98631938
                ],
                "xyz": [
                    0.29376759735085345,
                    1.99744872,
                    5.486154872773062
                ],
                "label": "Ca",
                "properties": {}
            },
            {
                "species": [
                    {
                        "element": "Hf",
                        "occu": 1
                    }
                ],
                "abc": [
                    0.5,
                    0.0,
                    0.0
                ],
                "xyz": [
                    2.877256465,
                    0.0,
                    0.0
                ],
                "label": "Hf",
                "properties": {}
            },
            {
                "species": [
                    {
                        "element": "Hf",
                        "occu": 1
                    }
                ],
                "abc": [
                    0.5,
                    0.5,
                    0.0
                ],
                "xyz": [
                    2.877256465,
                    3.99489744,
                    0.0
                ],
                "label": "Hf",
                "properties": {}
            },
            {
                "species": [
                    {
                        "element": "Hf",
                        "occu": 1
                    }
                ],
                "abc": [
                    0.0,
                    0.0,
                    0.5
                ],
                "xyz": [
                    0.0,
                    0.0,
                    2.78112495
                ],
                "label": "Hf",
                "properties": {}
            },
            {
                "species": [
                    {
                        "element": "Hf",
                        "occu": 1
                    }
                ],
                "abc": [
                    0.0,
                    0.5,
                    0.5
                ],
                "xyz": [
                    0.0,
                    3.99489744,
                    2.78112495
                ],
                "label": "Hf",
                "properties": {}
            },
            {
                "species": [
                    {
                        "element": "O",
                        "occu": 1
                    }
                ],
                "abc": [
                    0.45698004,
                    0.25,
                    0.10972107
                ],
                "xyz": [
                    2.629697548931917,
                    1.99744872,
                    0.6102960106353931
                ],
                "label": "O",
                "properties": {}
            },
            {
                "species": [
                    {
                        "element": "O",
                        "occu": 1
                    }
                ],
                "abc": [
                    0.19945997,
                    0.55825578,
                    0.19647799
                ],
                "xyz": [
                    1.147794976382412,
                    4.460349172774406,
                    1.092859680229701
                ],
                "label": "O",
                "properties": {}
            },
            {
                "species": [
                    {
                        "element": "O",
                        "occu": 1
                    }
                ],
                "abc": [
                    0.19945997,
                    0.94174422,
                    0.19647799
                ],
                "xyz": [
                    1.147794976382412,
                    7.5243431472255935,
                    1.092859680229701
                ],
                "label": "O",
                "properties": {}
            },
            {
                "species": [
                    {
                        "element": "O",
                        "occu": 1
                    }
                ],
                "abc": [
                    0.69945997,
                    0.55825578,
                    0.30352201
                ],
                "xyz": [
                    4.025051441382412,
                    4.460349172774406,
                    1.6882652697702991
                ],
                "label": "O",
                "properties": {}
            },
            {
                "species": [
                    {
                        "element": "O",
                        "occu": 1
                    }
                ],
                "abc": [
                    0.69945997,
                    0.94174422,
                    0.30352201
                ],
                "xyz": [
                    4.025051441382412,
                    7.5243431472255935,
                    1.6882652697702991
                ],
                "label": "O",
                "properties": {}
            },
            {
                "species": [
                    {
                        "element": "O",
                        "occu": 1
                    }
                ],
                "abc": [
                    0.95698004,
                    0.25,
                    0.39027893
                ],
                "xyz": [
                    5.506954013931917,
                    1.99744872,
                    2.170828939364607
                ],
                "label": "O",
                "properties": {}
            },
            {
                "species": [
                    {
                        "element": "O",
                        "occu": 1
                    }
                ],
                "abc": [
                    0.04301996,
                    0.75,
                    0.60972107
                ],
                "xyz": [
                    0.2475589160680828,
                    5.99234616,
                    3.391420960635393
                ],
                "label": "O",
                "properties": {}
            },
            {
                "species": [
                    {
                        "element": "O",
                        "occu": 1
                    }
                ],
                "abc": [
                    0.30054003,
                    0.05825578,
                    0.69647799
                ],
                "xyz": [
                    1.7294614886175879,
                    0.4654517327744064,
                    3.873984630229701
                ],
                "label": "O",
                "properties": {}
            },
            {
                "species": [
                    {
                        "element": "O",
                        "occu": 1
                    }
                ],
                "abc": [
                    0.30054003,
                    0.44174422,
                    0.69647799
                ],
                "xyz": [
                    1.7294614886175879,
                    3.5294457072255936,
                    3.873984630229701
                ],
                "label": "O",
                "properties": {}
            },
            {
                "species": [
                    {
                        "element": "O",
                        "occu": 1
                    }
                ],
                "abc": [
                    0.80054003,
                    0.05825578,
                    0.80352201
                ],
                "xyz": [
                    4.606717953617587,
                    0.4654517327744064,
                    4.4693902197702995
                ],
                "label": "O",
                "properties": {}
            },
            {
                "species": [
                    {
                        "element": "O",
                        "occu": 1
                    }
                ],
                "abc": [
                    0.80054003,
                    0.44174422,
                    0.80352201
                ],
                "xyz": [
                    4.606717953617587,
                    3.5294457072255936,
                    4.4693902197702995
                ],
                "label": "O",
                "properties": {}
            },
            {
                "species": [
                    {
                        "element": "O",
                        "occu": 1
                    }
                ],
                "abc": [
                    0.54301996,
                    0.75,
                    0.89027893
                ],
                "xyz": [
                    3.1248153810680823,
                    5.99234616,
                    4.951953889364607
                ],
                "label": "O",
                "properties": {}
            }
        ]
    },
    "spacegroup": {
        "source": "spglib",
        "symbol": "Pnma",
        "number": 62,
        "point_group": "mmm",
        "crystal_system": "orthorhombic",
        "hall": "-P 2ac 2n"
    },
    "dielectric": {
        "epsilon_ionic": [
            [
                13.69762569,
                -0.0,
                4e-08
            ],
            [
                -0.0,
                23.57165511,
                -0.0
            ],
            [
                4e-08,
                -0.0,
                14.2204863
            ]
        ],
        "epsilon_ionic_avg": 17.163255699999997,
        "epsilon_ionic_eig": [
            13.697625689999997,
            14.220486300000003,
            23.57165511
        ],
        "epsilon_electronic": [
            [
                4.15979637,
                0.0,
                0.0
            ],
            [
                0.0,
                4.08580573,
                0.0
            ],
            [
                -0.0,
                0.0,
                4.15488921
            ]
        ],
        "epsilon_electronic_avg": 4.133497103333333,
        "epsilon_electronic_eig": [
            4.15979637,
            4.08580573,
            4.15488921
        ]
    },
    "phonon": {
        "lowest_freq": -0.039589479886998076,
        "frequency": [
            -0.039589479886998076,
            -0.03264483359993216,
            -0.021164058115354933,
            2.6611672600567595,
            2.7237572905599654,
            3.5499927315099744,
            3.6537038076394865,
            3.7400049920343945,
            4.1885081967615205,
            4.21096663571404,
            4.671223647604318,
            5.010892689819296,
            5.015241374403638,
            5.240404346199813,
            5.311528640875571,
            5.541157701720265,
            5.70441369279705,
            5.969647411061861,
            5.996930245747353,
            6.040482249545174,
            6.102661912337341,
            6.31830362738386,
            6.5569706193202,
            6.802689086932353,
            7.197615857037132,
            7.472052014028301,
            7.625030347261854,
            7.724330782603974,
            7.845421235071224,
            8.001202893363809,
            8.269393160786022,
            8.555702017206498,
            8.97796107684295,
            9.150237567030484,
            10.137014583704596,
            10.340219009721293,
            10.341054515990782,
            10.483252931348831,
            10.896867833314452,
            10.90444925031994,
            11.055053291667315,
            11.859033779042402,
            12.103558743779367,
            12.427660351951234,
            12.754166392687187,
            12.854051279912376,
            13.951795952266446,
            14.086700917407502,
            16.02827340881856,
            16.21994018372294,
            16.617480775595677,
            16.69681957357735,
            16.930580174808682,
            17.264896454803896,
            17.50704522456156,
            17.72959422332386,
            17.88971714227728,
            21.51480870219073,
            22.678378891079305,
            23.097082259493686
        ]
    },
    "born_effective_charge": {
        "avg_abs_trace": 3.0503790000000004,
        "tensors": [
            [
                [
                    2.40422,
                    -0.0,
                    0.16455
                ],
                [
                    -2e-05,
                    2.31596,
                    4e-05
                ],
                [
                    0.11867,
                    -0.0,
                    2.45645
                ]
            ],
            [
                [
                    2.40422,
                    -0.0,
                    -0.16455
                ],
                [
                    -2e-05,
                    2.31596,
                    -4e-05
                ],
                [
                    -0.11853,
                    -0.0,
                    2.45637
                ]
            ],
            [
                [
                    2.40418,
                    -0.0,
                    -0.16481
                ],
                [
                    2e-05,
                    2.31596,
                    4e-05
                ],
                [
                    -0.11867,
                    -0.0,
                    2.45645
                ]
            ],
            [
                [
                    2.40418,
                    -0.0,
                    0.16481
                ],
                [
                    2e-05,
                    2.31596,
                    -4e-05
                ],
                [
                    0.11853,
                    -0.0,
                    2.45637
                ]
            ],
            [
                [
                    5.30097,
                    -0.09126,
                    0.15928
                ],
                [
                    -0.2453,
                    5.18015,
                    0.29111
                ],
                [
                    -0.32741,
                    -0.4859,
                    5.22015
                ]
            ],
            [
                [
                    5.30097,
                    0.09126,
                    0.15928
                ],
                [
                    0.2453,
                    5.18015,
                    -0.29111
                ],
                [
                    -0.32741,
                    0.4859,
                    5.22015
                ]
            ],
            [
                [
                    5.30097,
                    -0.09126,
                    -0.15928
                ],
                [
                    -0.2453,
                    5.18015,
                    -0.29111
                ],
                [
                    0.32741,
                    0.4859,
                    5.22015
                ]
            ],
            [
                [
                    5.30097,
                    0.09126,
                    -0.15928
                ],
                [
                    0.2453,
                    5.18015,
                    0.29111
                ],
                [
                    0.32741,
                    -0.4859,
                    5.22015
                ]
            ],
            [
                [
                    -1.77074,
                    -0.0,
                    -0.14037
                ],
                [
                    2e-05,
                    -3.80094,
                    -7e-05
                ],
                [
                    -0.06207,
                    -0.0,
                    -2.04964
                ]
            ],
            [
                [
                    -2.96725,
                    0.13,
                    1.00614
                ],
                [
                    0.12182,
                    -1.84755,
                    0.03174
                ],
                [
                    0.97202,
                    0.02408,
                    -2.8134
                ]
            ],
            [
                [
                    -2.96725,
                    -0.13,
                    1.00614
                ],
                [
                    -0.12193,
                    -1.84763,
                    -0.0317
                ],
                [
                    0.97202,
                    -0.02408,
                    -2.8134
                ]
            ],
            [
                [
                    -2.96725,
                    0.13,
                    -1.00614
                ],
                [
                    0.12182,
                    -1.84755,
                    -0.03174
                ],
                [
                    -0.972,
                    -0.02449,
                    -2.8135
                ]
            ],
            [
                [
                    -2.96725,
                    -0.13,
                    -1.00614
                ],
                [
                    -0.12193,
                    -1.84763,
                    0.0317
                ],
                [
                    -0.972,
                    0.02449,
                    -2.8135
                ]
            ],
            [
                [
                    -1.77074,
                    -0.0,
                    0.14037
                ],
                [
                    2e-05,
                    -3.80094,
                    7e-05
                ],
                [
                    0.06237,
                    -0.0,
                    -2.04967
                ]
            ],
            [
                [
                    -1.77072,
                    -0.0,
                    0.14027
                ],
                [
                    -2e-05,
                    -3.80094,
                    -7e-05
                ],
                [
                    0.06207,
                    -0.0,
                    -2.04964
                ]
            ],
            [
                [
                    -2.96719,
                    -0.13032,
                    -1.0058
                ],
                [
                    -0.12182,
                    -1.84755,
                    0.03174
                ],
                [
                    -0.97202,
                    0.02408,
                    -2.8134
                ]
            ],
            [
                [
                    -2.96719,
                    0.13032,
                    -1.0058
                ],
                [
                    0.12193,
                    -1.84763,
                    -0.0317
                ],
                [
                    -0.97202,
                    -0.02408,
                    -2.8134
                ]
            ],
            [
                [
                    -2.96719,
                    -0.13032,
                    1.0058
                ],
                [
                    -0.12182,
                    -1.84755,
                    -0.03174
                ],
                [
                    0.972,
                    -0.02449,
                    -2.8135
                ]
            ],
            [
                [
                    -2.96719,
                    0.13032,
                    1.0058
                ],
                [
                    0.12193,
                    -1.84763,
                    0.0317
                ],
                [
                    0.972,
                    0.02449,
                    -2.8135
                ]
            ],
            [
                [
                    -1.77072,
                    -0.0,
                    -0.14027
                ],
                [
                    -2e-05,
                    -3.80094,
                    7e-05
                ],
                [
                    -0.06237,
                    -0.0,
                    -2.04967
                ]
            ]
        ]
    },
    "band_gap": 4.975200000000001,
    "is_direct": true,
    "formula": "CaHfO3"
}