{
    "mp_id": "mp-756103",
    "nelements": 3,
    "nsites": 14,
    "elements": [
        "Hg",
        "O",
        "Y"
    ],
    "structure": {
        "@module": "pymatgen.core.structure",
        "@class": "Structure",
        "charge": null,
        "lattice": {
            "matrix": [
                [
                    6.74543141,
                    -1.79465685,
                    -0.00046835
                ],
                [
                    6.74543141,
                    1.79465685,
                    -0.00046835
                ],
                [
                    -5.41420394,
                    0.0,
                    8.43180641
                ]
            ],
            "a": 6.980088705426187,
            "b": 6.980088705426187,
            "c": 10.020427318214958,
            "alpha": 121.48052464032601,
            "beta": 121.48052464032601,
            "gamma": 29.797403282589887,
            "volume": 204.13732107408353
        },
        "sites": [
            {
                "species": [
                    {
                        "element": "Y",
                        "occu": 1
                    }
                ],
                "abc": [
                    0.61886178,
                    0.61886178,
                    0.46144523
                ],
                "xyz": [
                    5.850620796160815,
                    0.0,
                    3.8902371603485983
                ],
                "label": "Y",
                "properties": {}
            },
            {
                "species": [
                    {
                        "element": "Y",
                        "occu": 1
                    }
                ],
                "abc": [
                    0.16072846,
                    0.16072846,
                    0.80035911
                ],
                "xyz": [
                    -2.164941841647037,
                    0.0,
                    6.748322519651413
                ],
                "label": "Y",
                "properties": {}
            },
            {
                "species": [
                    {
                        "element": "Y",
                        "occu": 1
                    }
                ],
                "abc": [
                    0.83927154,
                    0.83927154,
                    0.19964089
                ],
                "xyz": [
                    10.241600721647037,
                    0.0,
                    1.682547190348587
                ],
                "label": "Y",
                "properties": {}
            },
            {
                "species": [
                    {
                        "element": "Y",
                        "occu": 1
                    }
                ],
                "abc": [
                    0.38113822,
                    0.38113822,
                    0.53855477
                ],
                "xyz": [
                    2.2260380838391867,
                    0.0,
                    4.540632549651401
                ],
                "label": "Y",
                "properties": {}
            },
            {
                "species": [
                    {
                        "element": "Hg",
                        "occu": 1
                    }
                ],
                "abc": [
                    0.88696281,
                    0.88696281,
                    0.83848842
                ],
                "xyz": [
                    7.426146288943349,
                    0.0,
                    7.069141216402645
                ],
                "label": "Hg",
                "properties": {}
            },
            {
                "species": [
                    {
                        "element": "Hg",
                        "occu": 1
                    }
                ],
                "abc": [
                    0.11303719,
                    0.11303719,
                    0.16151158
                ],
                "xyz": [
                    0.6505125910566506,
                    0.0,
                    1.3617284935973546
                ],
                "label": "Hg",
                "properties": {}
            },
            {
                "species": [
                    {
                        "element": "O",
                        "occu": 1
                    }
                ],
                "abc": [
                    0.23386516,
                    0.23386516,
                    0.61373584
                ],
                "xyz": [
                    -0.1678482111098587,
                    0.0,
                    5.174682728263363
                ],
                "label": "O",
                "properties": {}
            },
            {
                "species": [
                    {
                        "element": "O",
                        "occu": 1
                    }
                ],
                "abc": [
                    0.79761342,
                    0.79761342,
                    0.94639271
                ],
                "xyz": [
                    5.636530093341768,
                    0.0,
                    7.979052994064757
                ],
                "label": "O",
                "properties": {}
            },
            {
                "species": [
                    {
                        "element": "O",
                        "occu": 1
                    }
                ],
                "abc": [
                    0.03442741,
                    0.03442741,
                    0.28312406
                ],
                "xyz": [
                    -1.0684359356029005,
                    0.0,
                    2.3872150157782777
                ],
                "label": "O",
                "properties": {}
            },
            {
                "species": [
                    {
                        "element": "O",
                        "occu": 1
                    }
                ],
                "abc": [
                    0.58263046,
                    0.58263046,
                    0.65257227
                ],
                "xyz": [
                    4.327028255244753,
                    0.0,
                    5.501817299222369
                ],
                "label": "O",
                "properties": {}
            },
            {
                "species": [
                    {
                        "element": "O",
                        "occu": 1
                    }
                ],
                "abc": [
                    0.41736954,
                    0.41736954,
                    0.34742773
                ],
                "xyz": [
                    3.7496306247552464,
                    0.0,
                    2.9290524107776315
                ],
                "label": "O",
                "properties": {}
            },
            {
                "species": [
                    {
                        "element": "O",
                        "occu": 1
                    }
                ],
                "abc": [
                    0.96557259,
                    0.96557259,
                    0.71687594
                ],
                "xyz": [
                    9.1450948156029,
                    0.0,
                    6.043654694221722
                ],
                "label": "O",
                "properties": {}
            },
            {
                "species": [
                    {
                        "element": "O",
                        "occu": 1
                    }
                ],
                "abc": [
                    0.20238658,
                    0.20238658,
                    0.05360729
                ],
                "xyz": [
                    2.4401287866582333,
                    0.0,
                    0.4518167159352429
                ],
                "label": "O",
                "properties": {}
            },
            {
                "species": [
                    {
                        "element": "O",
                        "occu": 1
                    }
                ],
                "abc": [
                    0.76613484,
                    0.76613484,
                    0.38626416
                ],
                "xyz": [
                    8.244507091109858,
                    0.0,
                    3.256186981736638
                ],
                "label": "O",
                "properties": {}
            }
        ]
    },
    "spacegroup": {
        "source": "spglib",
        "symbol": "C2/m",
        "number": 12,
        "point_group": "2/m",
        "crystal_system": "monoclinic",
        "hall": "-C 2y"
    },
    "dielectric": {
        "epsilon_ionic": [
            [
                10.87420854,
                1e-08,
                -1.69405123
            ],
            [
                1e-08,
                8.17089407,
                -1e-08
            ],
            [
                -1.69405123,
                -1e-08,
                8.86681193
            ]
        ],
        "epsilon_ionic_avg": 9.303971513333337,
        "epsilon_ionic_eig": [
            11.839575967098451,
            7.901444502901558,
            8.170894070000001
        ],
        "epsilon_electronic": [
            [
                5.06994042,
                0.0,
                -0.25125617
            ],
            [
                0.0,
                4.5585604,
                0.0
            ],
            [
                -0.25125729,
                0.0,
                4.92060304
            ]
        ],
        "epsilon_electronic_avg": 4.849701286666666,
        "epsilon_electronic_eig": [
            5.257388798571078,
            4.733154661428921,
            4.5585604
        ]
    },
    "phonon": {
        "lowest_freq": -0.029495221579211497,
        "frequency": [
            -0.029495221579211497,
            -0.009624484575531113,
            -0.007657826950682047,
            1.6464693896738074,
            2.3124102904143395,
            2.4207524331097217,
            2.4357865162917745,
            2.9080337340798454,
            3.6582041992122756,
            3.945246776909504,
            3.9665405285397504,
            4.199216080379199,
            4.22527654331566,
            5.049382882680651,
            5.60188263482909,
            6.233026268374569,
            6.340020160948501,
            6.4711512388602275,
            6.713634421667443,
            7.60106284434136,
            7.84649454864803,
            8.303375811542038,
            8.905465291277283,
            8.935535984854857,
            9.176908480656389,
            9.622121526970007,
            9.770863538813355,
            10.000550719040886,
            10.124583342044057,
            10.245320170444023,
            11.837436191526512,
            12.34375393431767,
            13.049936015092339,
            13.083835584047929,
            13.505553725685443,
            14.619971529931544,
            14.96287791982884,
            17.034111930433564,
            17.684106940569308,
            19.09461099476672,
            19.510326886022497,
            19.976553532256712
        ]
    },
    "born_effective_charge": {
        "avg_abs_trace": 2.6511388095238098,
        "tensors": [
            [
                [
                    3.65124,
                    0.0,
                    -0.33419
                ],
                [
                    0.00027,
                    3.66176,
                    0.00017
                ],
                [
                    0.0834,
                    0.0,
                    4.00401
                ]
            ],
            [
                [
                    3.88362,
                    0.0,
                    0.07859
                ],
                [
                    -4e-05,
                    4.0113,
                    -0.00015
                ],
                [
                    -0.17642,
                    0.0,
                    3.62757
                ]
            ],
            [
                [
                    3.88381,
                    0.0,
                    0.07853
                ],
                [
                    4e-05,
                    4.0113,
                    0.00015
                ],
                [
                    -0.17646,
                    0.0,
                    3.6278
                ]
            ],
            [
                [
                    3.65156,
                    0.0,
                    -0.33419
                ],
                [
                    -0.00027,
                    3.66176,
                    -0.00017
                ],
                [
                    0.08359,
                    0.0,
                    4.00391
                ]
            ],
            [
                [
                    2.25162,
                    0.0,
                    -0.51351
                ],
                [
                    5e-05,
                    0.96513,
                    0.0001
                ],
                [
                    -0.54791,
                    0.0,
                    1.78035
                ]
            ],
            [
                [
                    2.25162,
                    0.0,
                    -0.51356
                ],
                [
                    -5e-05,
                    0.96513,
                    -0.0001
                ],
                [
                    -0.54793,
                    0.0,
                    1.78041
                ]
            ],
            [
                [
                    -2.35063,
                    0.0,
                    0.02261
                ],
                [
                    -0.00025,
                    -2.77536,
                    -0.00047
                ],
                [
                    -0.02067,
                    0.0,
                    -2.60063
                ]
            ],
            [
                [
                    -2.38006,
                    0.0,
                    0.4917
                ],
                [
                    1e-05,
                    -1.58094,
                    -0.00011
                ],
                [
                    0.42699,
                    0.0,
                    -2.33789
                ]
            ],
            [
                [
                    -2.41803,
                    0.0,
                    0.17415
                ],
                [
                    8e-05,
                    -1.65161,
                    2e-05
                ],
                [
                    0.21915,
                    0.0,
                    -2.1021
                ]
            ],
            [
                [
                    -2.638,
                    0.0,
                    0.08057
                ],
                [
                    8e-05,
                    -2.63029,
                    0.00036
                ],
                [
                    0.01545,
                    0.0,
                    -2.37133
                ]
            ],
            [
                [
                    -2.63795,
                    0.0,
                    0.08065
                ],
                [
                    -8e-05,
                    -2.63029,
                    -0.00036
                ],
                [
                    0.01542,
                    0.0,
                    -2.37142
                ]
            ],
            [
                [
                    -2.41809,
                    0.0,
                    0.17417
                ],
                [
                    -8e-05,
                    -1.65161,
                    -2e-05
                ],
                [
                    0.21921,
                    0.0,
                    -2.10207
                ]
            ],
            [
                [
                    -2.38008,
                    0.0,
                    0.49175
                ],
                [
                    -1e-05,
                    -1.58094,
                    0.00011
                ],
                [
                    0.42701,
                    0.0,
                    -2.33798
                ]
            ],
            [
                [
                    -2.35064,
                    0.0,
                    0.02272
                ],
                [
                    0.00025,
                    -2.77536,
                    0.00047
                ],
                [
                    -0.02083,
                    0.0,
                    -2.60063
                ]
            ]
        ]
    },
    "band_gap": 2.2638000000000003,
    "is_direct": false,
    "formula": "Y2HgO4"
}