{
    "mp_id": "mp-774702",
    "nelements": 3,
    "nsites": 16,
    "elements": [
        "Bi",
        "Li",
        "O"
    ],
    "structure": {
        "@module": "pymatgen.core.structure",
        "@class": "Structure",
        "charge": null,
        "lattice": {
            "matrix": [
                [
                    5.20618306,
                    0.0,
                    0.0011774
                ],
                [
                    0.0,
                    6.29033785,
                    0.0
                ],
                [
                    -1.62802114,
                    0.0,
                    5.04342003
                ]
            ],
            "a": 5.206183193136957,
            "b": 6.29033785,
            "c": 5.299673426853026,
            "alpha": 90.0,
            "beta": 107.87717477046274,
            "gamma": 90.0,
            "volume": 165.1772566841155
        },
        "sites": [
            {
                "species": [
                    {
                        "element": "Li",
                        "occu": 1
                    }
                ],
                "abc": [
                    0.0,
                    0.38762587,
                    0.75
                ],
                "xyz": [
                    -1.221015855,
                    2.4382976817001794,
                    3.7825650225
                ],
                "label": "Li",
                "properties": {}
            },
            {
                "species": [
                    {
                        "element": "Li",
                        "occu": 1
                    }
                ],
                "abc": [
                    0.0,
                    0.61237413,
                    0.25
                ],
                "xyz": [
                    -0.407005285,
                    3.8520401682998204,
                    1.2608550075
                ],
                "label": "Li",
                "properties": {}
            },
            {
                "species": [
                    {
                        "element": "Li",
                        "occu": 1
                    }
                ],
                "abc": [
                    0.5,
                    0.15479515,
                    0.75
                ],
                "xyz": [
                    1.3820756749999998,
                    0.9737137910414275,
                    3.7831537225000003
                ],
                "label": "Li",
                "properties": {}
            },
            {
                "species": [
                    {
                        "element": "Li",
                        "occu": 1
                    }
                ],
                "abc": [
                    0.5,
                    0.570738,
                    0.75
                ],
                "xyz": [
                    1.3820756749999998,
                    3.5901348438333,
                    3.7831537225000003
                ],
                "label": "Li",
                "properties": {}
            },
            {
                "species": [
                    {
                        "element": "Li",
                        "occu": 1
                    }
                ],
                "abc": [
                    0.5,
                    0.429262,
                    0.25
                ],
                "xyz": [
                    2.196086245,
                    2.7002030061667,
                    1.2614437075
                ],
                "label": "Li",
                "properties": {}
            },
            {
                "species": [
                    {
                        "element": "Li",
                        "occu": 1
                    }
                ],
                "abc": [
                    0.5,
                    0.84520485,
                    0.25
                ],
                "xyz": [
                    2.196086245,
                    5.316624058958573,
                    1.2614437075
                ],
                "label": "Li",
                "properties": {}
            },
            {
                "species": [
                    {
                        "element": "Bi",
                        "occu": 1
                    }
                ],
                "abc": [
                    0.0,
                    0.85084934,
                    0.75
                ],
                "xyz": [
                    -1.221015855,
                    5.352129808049519,
                    3.7825650225
                ],
                "label": "Bi",
                "properties": {}
            },
            {
                "species": [
                    {
                        "element": "Bi",
                        "occu": 1
                    }
                ],
                "abc": [
                    0.0,
                    0.14915066,
                    0.25
                ],
                "xyz": [
                    -0.407005285,
                    0.938208041950481,
                    1.2608550075
                ],
                "label": "Bi",
                "properties": {}
            },
            {
                "species": [
                    {
                        "element": "O",
                        "occu": 1
                    }
                ],
                "abc": [
                    0.25195951,
                    0.62630005,
                    0.98552129
                ],
                "xyz": [
                    -0.2927021612721701,
                    3.9396389099718925,
                    4.970694471104513
                ],
                "label": "O",
                "properties": {}
            },
            {
                "species": [
                    {
                        "element": "O",
                        "occu": 1
                    }
                ],
                "abc": [
                    0.23747228,
                    0.89289556,
                    0.48669869
                ],
                "xyz": [
                    0.44396840522527026,
                    5.616614737164946,
                    2.4549055215832327
                ],
                "label": "O",
                "properties": {}
            },
            {
                "species": [
                    {
                        "element": "O",
                        "occu": 1
                    }
                ],
                "abc": [
                    0.25195951,
                    0.37369995,
                    0.48552129
                ],
                "xyz": [
                    0.52130840872783,
                    2.3506989400281078,
                    2.4489844561045127
                ],
                "label": "O",
                "properties": {}
            },
            {
                "species": [
                    {
                        "element": "O",
                        "occu": 1
                    }
                ],
                "abc": [
                    0.23747228,
                    0.10710444,
                    0.98669869
                ],
                "xyz": [
                    -0.3700421647747296,
                    0.673723112835054,
                    4.976615536583233
                ],
                "label": "O",
                "properties": {}
            },
            {
                "species": [
                    {
                        "element": "O",
                        "occu": 1
                    }
                ],
                "abc": [
                    0.74804049,
                    0.62630005,
                    0.51447871
                ],
                "xyz": [
                    3.0568535112721698,
                    3.9396389099718925,
                    2.5956129738954874
                ],
                "label": "O",
                "properties": {}
            },
            {
                "species": [
                    {
                        "element": "O",
                        "occu": 1
                    }
                ],
                "abc": [
                    0.76252772,
                    0.10710444,
                    0.51330131
                ],
                "xyz": [
                    3.1341935147747297,
                    0.673723112835054,
                    2.5896919084167673
                ],
                "label": "O",
                "properties": {}
            },
            {
                "species": [
                    {
                        "element": "O",
                        "occu": 1
                    }
                ],
                "abc": [
                    0.74804049,
                    0.37369995,
                    0.01447871
                ],
                "xyz": [
                    3.8708640812721695,
                    2.3506989400281078,
                    0.0739029588954873
                ],
                "label": "O",
                "properties": {}
            },
            {
                "species": [
                    {
                        "element": "O",
                        "occu": 1
                    }
                ],
                "abc": [
                    0.76252772,
                    0.89289556,
                    0.01330131
                ],
                "xyz": [
                    3.94820408477473,
                    5.616614737164946,
                    0.0679818934167673
                ],
                "label": "O",
                "properties": {}
            }
        ]
    },
    "spacegroup": {
        "source": "spglib",
        "symbol": "P2/c",
        "number": 13,
        "point_group": "2/m",
        "crystal_system": "monoclinic",
        "hall": "-P 2yc"
    },
    "dielectric": {
        "epsilon_ionic": [
            [
                10.38403885,
                2e-08,
                0.75871936
            ],
            [
                2e-08,
                13.67577105,
                1e-08
            ],
            [
                0.75871936,
                1e-08,
                16.04367185
            ]
        ],
        "epsilon_ionic_avg": 13.367827249999996,
        "epsilon_ionic_eig": [
            10.284091453213932,
            16.143619246786056,
            13.675771049999998
        ],
        "epsilon_electronic": [
            [
                4.11161741,
                0.0,
                -0.04201854
            ],
            [
                0.0,
                4.57650178,
                0.0
            ],
            [
                -0.04202005,
                0.0,
                4.71535228
            ]
        ],
        "epsilon_electronic_avg": 4.467823823333333,
        "epsilon_electronic_eig": [
            4.108706943135042,
            4.7182627468649585,
            4.57650178
        ]
    },
    "phonon": {
        "lowest_freq": -0.04801960738294752,
        "frequency": [
            -0.04801960738294752,
            -0.031225101383120527,
            -0.010828673842148766,
            2.7638953206231642,
            3.955028056900281,
            4.262963357631993,
            4.341612312607177,
            4.958317763863027,
            5.505994966656849,
            5.835557520886997,
            5.880488813751388,
            5.900494531053567,
            6.1941506216799755,
            7.017453904737657,
            7.152915160249348,
            7.367368733041755,
            7.423051218431987,
            7.523545761618956,
            7.77426483464789,
            7.96143805315618,
            8.07194046151035,
            8.159074486501298,
            8.739943908628787,
            8.985832310061303,
            9.668380365068048,
            9.943244561948948,
            10.199256348327053,
            10.39283906054837,
            10.736183380172644,
            10.986939823056646,
            11.201770235599465,
            11.779228374645225,
            11.779911412888485,
            12.136664382771988,
            12.178851132420238,
            12.514153236776224,
            12.669068510595999,
            13.390333948403212,
            13.432858992036442,
            14.851751541029522,
            15.011810229696419,
            15.376548684324405,
            15.600294809561522,
            16.08967472263826,
            16.776252256876777,
            17.158143427511046,
            17.94611786770464,
            18.623318563632637
        ]
    },
    "born_effective_charge": {
        "avg_abs_trace": 1.9102579166666667,
        "tensors": [
            [
                [
                    0.7288,
                    -1e-05,
                    -0.15341
                ],
                [
                    -0.0,
                    1.32958,
                    0.0
                ],
                [
                    -0.24074,
                    3e-05,
                    1.01868
                ]
            ],
            [
                [
                    0.7288,
                    1e-05,
                    -0.15341
                ],
                [
                    -0.0,
                    1.3296,
                    0.0
                ],
                [
                    -0.24074,
                    -3e-05,
                    1.01868
                ]
            ],
            [
                [
                    1.51491,
                    -1e-05,
                    0.03185
                ],
                [
                    -0.0,
                    0.76319,
                    0.0
                ],
                [
                    -0.0023,
                    2e-05,
                    1.18454
                ]
            ],
            [
                [
                    1.33872,
                    1e-05,
                    0.20716
                ],
                [
                    -0.0,
                    1.43536,
                    0.0
                ],
                [
                    0.32967,
                    -1e-05,
                    1.18217
                ]
            ],
            [
                [
                    1.33872,
                    -1e-05,
                    0.20716
                ],
                [
                    -0.0,
                    1.43535,
                    0.0
                ],
                [
                    0.32967,
                    1e-05,
                    1.18217
                ]
            ],
            [
                [
                    1.51491,
                    1e-05,
                    0.03185
                ],
                [
                    -0.0,
                    0.7632,
                    0.0
                ],
                [
                    -0.0023,
                    -2e-05,
                    1.18454
                ]
            ],
            [
                [
                    3.19339,
                    0.00013,
                    -0.41868
                ],
                [
                    -0.0,
                    4.19107,
                    0.0
                ],
                [
                    -0.5241,
                    -4e-05,
                    5.04276
                ]
            ],
            [
                [
                    3.19339,
                    -0.00013,
                    -0.41868
                ],
                [
                    -0.0,
                    4.19091,
                    0.0
                ],
                [
                    -0.5241,
                    4e-05,
                    5.04276
                ]
            ],
            [
                [
                    -1.67909,
                    0.31788,
                    -0.27209
                ],
                [
                    0.25808,
                    -2.12949,
                    0.30661
                ],
                [
                    -0.14671,
                    0.19597,
                    -1.87664
                ]
            ],
            [
                [
                    -1.70888,
                    -0.08145,
                    0.4385
                ],
                [
                    -0.09197,
                    -1.73012,
                    0.42351
                ],
                [
                    0.36536,
                    0.51808,
                    -2.33748
                ]
            ],
            [
                [
                    -1.67909,
                    -0.31788,
                    -0.27209
                ],
                [
                    -0.25827,
                    -2.12925,
                    -0.30638
                ],
                [
                    -0.14671,
                    -0.19597,
                    -1.87664
                ]
            ],
            [
                [
                    -1.70888,
                    0.08145,
                    0.4385
                ],
                [
                    0.09192,
                    -1.73026,
                    -0.42397
                ],
                [
                    0.36536,
                    -0.51808,
                    -2.33748
                ]
            ],
            [
                [
                    -1.67922,
                    -0.31808,
                    -0.27218
                ],
                [
                    -0.25808,
                    -2.12949,
                    -0.30661
                ],
                [
                    -0.14649,
                    -0.1957,
                    -1.87669
                ]
            ],
            [
                [
                    -1.70862,
                    -0.08144,
                    0.43885
                ],
                [
                    -0.09192,
                    -1.73026,
                    0.42397
                ],
                [
                    0.36531,
                    0.51772,
                    -2.33735
                ]
            ],
            [
                [
                    -1.67922,
                    0.31808,
                    -0.27218
                ],
                [
                    0.25827,
                    -2.12925,
                    0.30638
                ],
                [
                    -0.14649,
                    0.1957,
                    -1.87669
                ]
            ],
            [
                [
                    -1.70862,
                    0.08144,
                    0.43885
                ],
                [
                    0.09197,
                    -1.73012,
                    -0.42351
                ],
                [
                    0.36531,
                    -0.51772,
                    -2.33735
                ]
            ]
        ]
    },
    "band_gap": 1.5349000000000004,
    "is_direct": false,
    "formula": "Li3BiO4"
}