{
    "mp_id": "mp-7500",
    "nelements": 3,
    "nsites": 18,
    "elements": [
        "Na",
        "O",
        "Si"
    ],
    "structure": {
        "@module": "pymatgen.core.structure",
        "@class": "Structure",
        "charge": null,
        "lattice": {
            "matrix": [
                [
                    5.52465912,
                    -0.00027473,
                    0.00181095
                ],
                [
                    2.09190823,
                    5.11526682,
                    -0.00103031
                ],
                [
                    2.62941244,
                    0.33726628,
                    7.93068271
                ]
            ],
            "a": 5.524659423640126,
            "b": 5.526484935659678,
            "c": 8.362014504289306,
            "alpha": 81.01469863317699,
            "beta": 71.65390901424615,
            "gamma": 67.76055677573848,
            "volume": 224.10532846047772
        },
        "sites": [
            {
                "species": [
                    {
                        "element": "Na",
                        "occu": 1
                    }
                ],
                "abc": [
                    0.98115536,
                    0.23295794,
                    0.06319047
                ],
                "xyz": [
                    6.074029347598177,
                    1.2126844828738497,
                    0.5026803722698043
                ],
                "label": "Na",
                "properties": {}
            },
            {
                "species": [
                    {
                        "element": "Na",
                        "occu": 1
                    }
                ],
                "abc": [
                    0.45187892,
                    0.73640368,
                    0.10737586
                ],
                "xyz": [
                    4.319301337347735,
                    3.8029914225982075,
                    0.8516234824280138
                ],
                "label": "Na",
                "properties": {}
            },
            {
                "species": [
                    {
                        "element": "Na",
                        "occu": 1
                    }
                ],
                "abc": [
                    0.89869509,
                    0.76590514,
                    0.32759292
                ],
                "xyz": [
                    7.428564189936948,
                    4.028048296890117,
                    2.5988738787108554
                ],
                "label": "Na",
                "properties": {}
            },
            {
                "species": [
                    {
                        "element": "Na",
                        "occu": 1
                    }
                ],
                "abc": [
                    0.26332193,
                    0.74336743,
                    0.51641206
                ],
                "xyz": [
                    4.367680641531477,
                    3.976618781737181,
                    4.095211159429812
                ],
                "label": "Na",
                "properties": {}
            },
            {
                "species": [
                    {
                        "element": "Na",
                        "occu": 1
                    }
                ],
                "abc": [
                    0.73667807,
                    0.25663257,
                    0.48358794
                ],
                "xyz": [
                    5.878299148468523,
                    1.4756395882628197,
                    3.836252190570187
                ],
                "label": "Na",
                "properties": {}
            },
            {
                "species": [
                    {
                        "element": "Na",
                        "occu": 1
                    }
                ],
                "abc": [
                    0.54812108,
                    0.26359632,
                    0.89262414
                ],
                "xyz": [
                    5.926678452652265,
                    1.6492669474017934,
                    7.0798398675719865
                ],
                "label": "Na",
                "properties": {}
            },
            {
                "species": [
                    {
                        "element": "Na",
                        "occu": 1
                    }
                ],
                "abc": [
                    0.01884464,
                    0.76704206,
                    0.93680953
                ],
                "xyz": [
                    4.1719504424018234,
                    4.23957388712615,
                    7.4287829777301955
                ],
                "label": "Na",
                "properties": {}
            },
            {
                "species": [
                    {
                        "element": "Na",
                        "occu": 1
                    }
                ],
                "abc": [
                    0.10130491,
                    0.23409486,
                    0.67240708
                ],
                "xyz": [
                    2.817415600063052,
                    1.4242100731098835,
                    5.332589471289145
                ],
                "label": "Na",
                "properties": {}
            },
            {
                "species": [
                    {
                        "element": "Si",
                        "occu": 1
                    }
                ],
                "abc": [
                    0.34272404,
                    0.22321692,
                    0.25253706
                ],
                "xyz": [
                    3.024406892377523,
                    1.226892182751422,
                    2.0031819688516252
                ],
                "label": "Si",
                "properties": {}
            },
            {
                "species": [
                    {
                        "element": "Si",
                        "occu": 1
                    }
                ],
                "abc": [
                    0.65727596,
                    0.77678308,
                    0.74746294
                ],
                "xyz": [
                    7.221572897622477,
                    4.225366187248578,
                    5.928281381148375
                ],
                "label": "Si",
                "properties": {}
            },
            {
                "species": [
                    {
                        "element": "O",
                        "occu": 1
                    }
                ],
                "abc": [
                    0.34728157,
                    0.96092787,
                    0.85437631
                ],
                "xyz": [
                    6.175292910553085,
                    5.203459360952375,
                    6.775426285516052
                ],
                "label": "O",
                "properties": {}
            },
            {
                "species": [
                    {
                        "element": "O",
                        "occu": 1
                    }
                ],
                "abc": [
                    0.79218658,
                    0.53402465,
                    0.87434605
                ],
                "xyz": [
                    7.792707755031341,
                    3.026348375504184,
                    6.9350455006417056
                ],
                "label": "O",
                "properties": {}
            },
            {
                "species": [
                    {
                        "element": "O",
                        "occu": 1
                    }
                ],
                "abc": [
                    0.20781342,
                    0.46597535,
                    0.12565395
                ],
                "xyz": [
                    2.4532720349686588,
                    2.4259099944958162,
                    0.9964178493582949
                ],
                "label": "O",
                "properties": {}
            },
            {
                "species": [
                    {
                        "element": "O",
                        "occu": 1
                    }
                ],
                "abc": [
                    0.8503589,
                    0.96124206,
                    0.69439011
                ],
                "xyz": [
                    8.53461122194129,
                    5.150970365674343,
                    5.507537219515114
                ],
                "label": "O",
                "properties": {}
            },
            {
                "species": [
                    {
                        "element": "O",
                        "occu": 1
                    }
                ],
                "abc": [
                    0.1496411,
                    0.03875794,
                    0.30560989
                ],
                "xyz": [
                    1.7113685680587096,
                    0.301288004325657,
                    2.423926130484886
                ],
                "label": "O",
                "properties": {}
            },
            {
                "species": [
                    {
                        "element": "O",
                        "occu": 1
                    }
                ],
                "abc": [
                    0.65164002,
                    0.6492007,
                    0.5841395
                ],
                "xyz": [
                    6.494100934697123,
                    3.5176663313341394,
                    4.633136242399047
                ],
                "label": "O",
                "properties": {}
            },
            {
                "species": [
                    {
                        "element": "O",
                        "occu": 1
                    }
                ],
                "abc": [
                    0.65271843,
                    0.03907213,
                    0.14562369
                ],
                "xyz": [
                    4.070686879446915,
                    0.24879900904762592,
                    1.1560370644839482
                ],
                "label": "O",
                "properties": {}
            },
            {
                "species": [
                    {
                        "element": "O",
                        "occu": 1
                    }
                ],
                "abc": [
                    0.34835998,
                    0.3507993,
                    0.4158605
                ],
                "xyz": [
                    3.7518788553028766,
                    1.9345920386658606,
                    3.2983271076009535
                ],
                "label": "O",
                "properties": {}
            }
        ]
    },
    "spacegroup": {
        "source": "spglib",
        "symbol": "P-1",
        "number": 2,
        "point_group": "-1",
        "crystal_system": "triclinic",
        "hall": "-P 1"
    },
    "dielectric": {
        "epsilon_ionic": [
            [
                3.45645987,
                -0.32490233,
                0.07048092
            ],
            [
                -0.32490233,
                4.44924505,
                -0.09328958
            ],
            [
                0.07048092,
                -0.09328958,
                3.32232114
            ]
        ],
        "epsilon_ionic_avg": 3.7426753533333343,
        "epsilon_ionic_eig": [
            4.55585883575762,
            3.3830979684552798,
            3.2890692557871035
        ],
        "epsilon_electronic": [
            [
                2.4354239,
                -0.00073708,
                -0.0052516
            ],
            [
                -0.00073569,
                2.46278601,
                -0.00278891
            ],
            [
                -0.00525313,
                -0.0027824,
                2.44954151
            ]
        ],
        "epsilon_electronic_avg": 2.4492504733333322,
        "epsilon_electronic_eig": [
            2.4335982291238607,
            2.450801271211259,
            2.4633519196648774
        ]
    },
    "phonon": {
        "lowest_freq": -0.2211754306385947,
        "frequency": [
            -0.2211754306385947,
            -0.14579931876360414,
            -0.12483968794680816,
            3.0280524534976467,
            3.7156126638024656,
            3.937776330393539,
            4.398591873782185,
            4.648818495360837,
            4.704891567644021,
            4.73387755740351,
            5.0316200579552115,
            5.0500811297740995,
            5.282414347377933,
            5.611277661802996,
            5.709847370983023,
            5.783400167937895,
            6.033693494054258,
            6.280659028539296,
            6.342763143074209,
            6.665998066326377,
            6.754575794993375,
            6.935863231619007,
            7.052742221016723,
            7.152591565777796,
            7.373700608133814,
            7.517161238309099,
            7.720228066230281,
            8.128771735143447,
            8.164648937119605,
            8.303828741643594,
            8.38995720480809,
            8.577964842918638,
            8.64809756598496,
            8.881222604296854,
            8.977788282068062,
            9.296780166269862,
            11.618326180186878,
            11.719585398331567,
            12.061131267174067,
            12.283226452387254,
            14.33741559430408,
            14.586890715325652,
            14.665631752783959,
            14.752759274758356,
            14.880371194498014,
            15.441570921190358,
            23.53198056684882,
            23.560891510354192,
            24.785394146166905,
            24.96377292471704,
            25.099756387934406,
            25.799268319693258,
            26.657880304019343,
            27.699752098195727
        ]
    },
    "born_effective_charge": {
        "avg_abs_trace": 1.4269774074074073,
        "tensors": [
            [
                [
                    1.08572,
                    -0.0659,
                    0.04288
                ],
                [
                    -0.07081,
                    0.93476,
                    -0.00145
                ],
                [
                    0.03902,
                    -0.0165,
                    0.98243
                ]
            ],
            [
                [
                    0.84784,
                    0.09814,
                    -0.02684
                ],
                [
                    0.09929,
                    1.02848,
                    -0.00136
                ],
                [
                    -0.02231,
                    -0.0048,
                    1.00193
                ]
            ],
            [
                [
                    1.00446,
                    -0.06452,
                    0.0014
                ],
                [
                    -0.07517,
                    1.0692,
                    0.00047
                ],
                [
                    -0.02327,
                    -0.00429,
                    0.97814
                ]
            ],
            [
                [
                    1.00567,
                    0.04531,
                    -0.01994
                ],
                [
                    0.05108,
                    0.96659,
                    -0.01532
                ],
                [
                    0.01396,
                    0.01279,
                    0.97405
                ]
            ],
            [
                [
                    1.00567,
                    0.04532,
                    -0.01994
                ],
                [
                    0.05106,
                    0.9666,
                    -0.01531
                ],
                [
                    0.01396,
                    0.0128,
                    0.97405
                ]
            ],
            [
                [
                    0.84784,
                    0.09815,
                    -0.02684
                ],
                [
                    0.09929,
                    1.02849,
                    -0.00135
                ],
                [
                    -0.02231,
                    -0.0048,
                    1.00192
                ]
            ],
            [
                [
                    1.08571,
                    -0.06591,
                    0.04288
                ],
                [
                    -0.07082,
                    0.93476,
                    -0.00145
                ],
                [
                    0.03903,
                    -0.0165,
                    0.98244
                ]
            ],
            [
                [
                    1.00446,
                    -0.06451,
                    0.0014
                ],
                [
                    -0.07516,
                    1.0692,
                    0.00047
                ],
                [
                    -0.02326,
                    -0.00429,
                    0.97815
                ]
            ],
            [
                [
                    2.3979,
                    0.02212,
                    0.05785
                ],
                [
                    0.01783,
                    2.49143,
                    0.0777
                ],
                [
                    0.02644,
                    0.07094,
                    2.49562
                ]
            ],
            [
                [
                    2.39791,
                    0.0222,
                    0.05786
                ],
                [
                    0.01789,
                    2.49143,
                    0.07771
                ],
                [
                    0.02648,
                    0.07097,
                    2.49556
                ]
            ],
            [
                [
                    -1.66363,
                    0.36238,
                    0.25748
                ],
                [
                    0.29971,
                    -1.6101,
                    -0.31488
                ],
                [
                    0.23793,
                    -0.2753,
                    -1.5759
                ]
            ],
            [
                [
                    -1.38093,
                    0.19411,
                    -0.1824
                ],
                [
                    0.24535,
                    -1.78962,
                    0.41459
                ],
                [
                    -0.18133,
                    0.37776,
                    -1.62667
                ]
            ],
            [
                [
                    -1.38112,
                    0.19438,
                    -0.18258
                ],
                [
                    0.24546,
                    -1.78972,
                    0.41465
                ],
                [
                    -0.18133,
                    0.37786,
                    -1.62672
                ]
            ],
            [
                [
                    -1.83444,
                    -0.42818,
                    0.16866
                ],
                [
                    -0.43559,
                    -1.56182,
                    0.09964
                ],
                [
                    0.21095,
                    0.14933,
                    -1.37589
                ]
            ],
            [
                [
                    -1.83424,
                    -0.42799,
                    0.16854
                ],
                [
                    -0.43529,
                    -1.56167,
                    0.09958
                ],
                [
                    0.2114,
                    0.14961,
                    -1.37605
                ]
            ],
            [
                [
                    -1.46256,
                    -0.16399,
                    -0.29916
                ],
                [
                    -0.13205,
                    -1.52895,
                    -0.25947
                ],
                [
                    -0.30186,
                    -0.3099,
                    -1.85333
                ]
            ],
            [
                [
                    -1.66385,
                    0.3626,
                    0.25771
                ],
                [
                    0.29983,
                    -1.61022,
                    -0.31502
                ],
                [
                    0.23843,
                    -0.27574,
                    -1.57616
                ]
            ],
            [
                [
                    -1.46241,
                    -0.16372,
                    -0.29896
                ],
                [
                    -0.13191,
                    -1.52882,
                    -0.2592
                ],
                [
                    -0.30194,
                    -0.30994,
                    -1.85355
                ]
            ]
        ]
    },
    "band_gap": 3.3989000000000003,
    "is_direct": false,
    "formula": "Na4SiO4"
}