{
    "mp_id": "mp-7638",
    "nelements": 3,
    "nsites": 24,
    "elements": [
        "Li",
        "O",
        "Ta"
    ],
    "structure": {
        "@module": "pymatgen.core.structure",
        "@class": "Structure",
        "charge": null,
        "lattice": {
            "matrix": [
                [
                    4.70101295,
                    -5.77235629,
                    0.00069779
                ],
                [
                    4.70101295,
                    5.77235629,
                    0.00069779
                ],
                [
                    -0.09832078,
                    0.0,
                    5.11039795
                ]
            ],
            "a": 7.444435531434277,
            "b": 7.444435531434277,
            "c": 5.111343676876366,
            "alpha": 90.69062044186681,
            "beta": 90.69062044186681,
            "gamma": 101.68118537203895,
            "volume": 277.3515090118485
        },
        "sites": [
            {
                "species": [
                    {
                        "element": "Li",
                        "occu": 1
                    }
                ],
                "abc": [
                    0.84387657,
                    0.15612343,
                    0.75
                ],
                "xyz": [
                    4.627272365,
                    -3.969956163646251,
                    3.8334962525000003
                ],
                "label": "Li",
                "properties": {}
            },
            {
                "species": [
                    {
                        "element": "Li",
                        "occu": 1
                    }
                ],
                "abc": [
                    0.15612343,
                    0.84387657,
                    0.25
                ],
                "xyz": [
                    4.6764327549999996,
                    3.969956163646251,
                    1.2782972775
                ],
                "label": "Li",
                "properties": {}
            },
            {
                "species": [
                    {
                        "element": "Ta",
                        "occu": 1
                    }
                ],
                "abc": [
                    0.32198693,
                    0.67801307,
                    0.75
                ],
                "xyz": [
                    4.627272365,
                    2.055109728633421,
                    3.8334962525000003
                ],
                "label": "Ta",
                "properties": {}
            },
            {
                "species": [
                    {
                        "element": "Ta",
                        "occu": 1
                    }
                ],
                "abc": [
                    0.67801307,
                    0.32198693,
                    0.25
                ],
                "xyz": [
                    4.6764327549999996,
                    -2.055109728633421,
                    1.2782972775
                ],
                "label": "Ta",
                "properties": {}
            },
            {
                "species": [
                    {
                        "element": "Ta",
                        "occu": 1
                    }
                ],
                "abc": [
                    0.32762676,
                    0.16486021,
                    0.74638919
                ],
                "xyz": [
                    2.2418020563318932,
                    -0.9395465186940997,
                    3.814689438960957
                ],
                "label": "Ta",
                "properties": {}
            },
            {
                "species": [
                    {
                        "element": "Ta",
                        "occu": 1
                    }
                ],
                "abc": [
                    0.83513979,
                    0.67237324,
                    0.75361081
                ],
                "xyz": [
                    7.012742673668107,
                    -0.9395465186941001,
                    3.8523030660390436
                ],
                "label": "Ta",
                "properties": {}
            },
            {
                "species": [
                    {
                        "element": "Ta",
                        "occu": 1
                    }
                ],
                "abc": [
                    0.67237324,
                    0.83513979,
                    0.25361081
                ],
                "xyz": [
                    7.061903063668107,
                    0.9395465186941001,
                    1.2971040910390432
                ],
                "label": "Ta",
                "properties": {}
            },
            {
                "species": [
                    {
                        "element": "Ta",
                        "occu": 1
                    }
                ],
                "abc": [
                    0.16486021,
                    0.32762676,
                    0.24638919
                ],
                "xyz": [
                    2.2909624463318936,
                    0.9395465186940997,
                    1.2594904639609568
                ],
                "label": "Ta",
                "properties": {}
            },
            {
                "species": [
                    {
                        "element": "O",
                        "occu": 1
                    }
                ],
                "abc": [
                    0.31538479,
                    0.92365329,
                    0.60371723
                ],
                "xyz": [
                    5.765376110670097,
                    3.5111425019838647,
                    3.086099882953522
                ],
                "label": "O",
                "properties": {}
            },
            {
                "species": [
                    {
                        "element": "O",
                        "occu": 1
                    }
                ],
                "abc": [
                    0.07634671,
                    0.68461521,
                    0.89628277
                ],
                "xyz": [
                    3.489168619329903,
                    3.5111425019838656,
                    4.580892622046479
                ],
                "label": "O",
                "properties": {}
            },
            {
                "species": [
                    {
                        "element": "O",
                        "occu": 1
                    }
                ],
                "abc": [
                    0.68461521,
                    0.07634671,
                    0.39628277
                ],
                "xyz": [
                    3.538329009329903,
                    -3.5111425019838656,
                    2.0256936470464786
                ],
                "label": "O",
                "properties": {}
            },
            {
                "species": [
                    {
                        "element": "O",
                        "occu": 1
                    }
                ],
                "abc": [
                    0.92365329,
                    0.31538479,
                    0.10371723
                ],
                "xyz": [
                    5.814536500670097,
                    -3.5111425019838647,
                    0.5309009079535217
                ],
                "label": "O",
                "properties": {}
            },
            {
                "species": [
                    {
                        "element": "O",
                        "occu": 1
                    }
                ],
                "abc": [
                    0.90560196,
                    0.80581495,
                    0.43882782
                ],
                "xyz": [
                    8.002247163210885,
                    -0.5760061748337932,
                    2.243779001336598
                ],
                "label": "O",
                "properties": {}
            },
            {
                "species": [
                    {
                        "element": "O",
                        "occu": 1
                    }
                ],
                "abc": [
                    0.19418505,
                    0.09439804,
                    0.06117218
                ],
                "xyz": [
                    1.350618346789115,
                    -0.576006174833793,
                    0.31281555366340213
                ],
                "label": "O",
                "properties": {}
            },
            {
                "species": [
                    {
                        "element": "O",
                        "occu": 1
                    }
                ],
                "abc": [
                    0.09439804,
                    0.19418505,
                    0.56117218
                ],
                "xyz": [
                    1.3014579567891151,
                    0.576006174833793,
                    2.8680145286634025
                ],
                "label": "O",
                "properties": {}
            },
            {
                "species": [
                    {
                        "element": "O",
                        "occu": 1
                    }
                ],
                "abc": [
                    0.80581495,
                    0.90560196,
                    0.93882782
                ],
                "xyz": [
                    7.953086773210886,
                    0.5760061748337932,
                    4.798977976336598
                ],
                "label": "O",
                "properties": {}
            },
            {
                "species": [
                    {
                        "element": "O",
                        "occu": 1
                    }
                ],
                "abc": [
                    0.20585953,
                    0.56496311,
                    0.42386855
                ],
                "xyz": [
                    3.5819721263397186,
                    2.0728738087745184,
                    2.166674841319438
                ],
                "label": "O",
                "properties": {}
            },
            {
                "species": [
                    {
                        "element": "O",
                        "occu": 1
                    }
                ],
                "abc": [
                    0.43503689,
                    0.79414047,
                    0.07613145
                ],
                "xyz": [
                    5.770893383660281,
                    2.0728738087745184,
                    0.38991971368056194
                ],
                "label": "O",
                "properties": {}
            },
            {
                "species": [
                    {
                        "element": "O",
                        "occu": 1
                    }
                ],
                "abc": [
                    0.79414047,
                    0.43503689,
                    0.57613145
                ],
                "xyz": [
                    5.721732993660281,
                    -2.0728738087745184,
                    2.9451186886805623
                ],
                "label": "O",
                "properties": {}
            },
            {
                "species": [
                    {
                        "element": "O",
                        "occu": 1
                    }
                ],
                "abc": [
                    0.56496311,
                    0.20585953,
                    0.92386855
                ],
                "xyz": [
                    3.5328117363397187,
                    -2.0728738087745184,
                    4.721873816319438
                ],
                "label": "O",
                "properties": {}
            },
            {
                "species": [
                    {
                        "element": "O",
                        "occu": 1
                    }
                ],
                "abc": [
                    0.69512083,
                    0.57108315,
                    0.08769239
                ],
                "xyz": [
                    5.943819323136677,
                    -0.7159896823450076,
                    0.44902655456180474
                ],
                "label": "O",
                "properties": {}
            },
            {
                "species": [
                    {
                        "element": "O",
                        "occu": 1
                    }
                ],
                "abc": [
                    0.42891685,
                    0.30487917,
                    0.41230761
                ],
                "xyz": [
                    3.409046186863323,
                    -0.7159896823450076,
                    2.1075680004381954
                ],
                "label": "O",
                "properties": {}
            },
            {
                "species": [
                    {
                        "element": "O",
                        "occu": 1
                    }
                ],
                "abc": [
                    0.30487917,
                    0.42891685,
                    0.91230761
                ],
                "xyz": [
                    3.359885796863323,
                    0.7159896823450076,
                    4.662766975438196
                ],
                "label": "O",
                "properties": {}
            },
            {
                "species": [
                    {
                        "element": "O",
                        "occu": 1
                    }
                ],
                "abc": [
                    0.57108315,
                    0.69512083,
                    0.58769239
                ],
                "xyz": [
                    5.894658933136677,
                    0.7159896823450076,
                    3.0042255295618046
                ],
                "label": "O",
                "properties": {}
            }
        ]
    },
    "spacegroup": {
        "source": "spglib",
        "symbol": "C2/c",
        "number": 15,
        "point_group": "2/m",
        "crystal_system": "monoclinic",
        "hall": "-C 2yc"
    },
    "dielectric": {
        "epsilon_ionic": [
            [
                17.88711328,
                1e-08,
                2.769392
            ],
            [
                1e-08,
                22.30882704,
                -2e-08
            ],
            [
                2.769392,
                -2e-08,
                20.00710969
            ]
        ],
        "epsilon_ionic_avg": 20.06768333666666,
        "epsilon_ionic_eig": [
            15.981790550553395,
            21.912432419446592,
            22.308827039999997
        ],
        "epsilon_electronic": [
            [
                4.85980256,
                0.0,
                0.28284592
            ],
            [
                0.0,
                4.91095536,
                0.0
            ],
            [
                0.28284513,
                0.0,
                5.1248221
            ]
        ],
        "epsilon_electronic_avg": 4.96519334,
        "epsilon_electronic_eig": [
            4.679965679373133,
            5.304658980626868,
            4.91095536
        ]
    },
    "phonon": {
        "lowest_freq": -0.04103706398918424,
        "frequency": [
            -0.04103706398918424,
            -0.03541987747082933,
            -0.023437119132918818,
            2.0240136761775567,
            2.215700176723184,
            2.925857876921326,
            3.125362801174561,
            3.8157736268353624,
            3.8964635282068762,
            4.000354735906791,
            4.02332195142609,
            5.020968925858915,
            5.186531611819956,
            5.310650775585528,
            5.5134885105942,
            5.653789536458842,
            5.7354769899687845,
            5.775302849701891,
            6.174715611879801,
            6.193860431308194,
            6.3554243380277144,
            6.735823794687459,
            7.3135971163922235,
            7.325947353163592,
            7.489906275835021,
            7.667571859285087,
            8.084585563108863,
            8.181251979272236,
            8.220021425439008,
            8.50950315680549,
            8.56312546583124,
            8.701150372390027,
            8.736184780912703,
            8.89521988293006,
            9.726792659887714,
            9.776079190684507,
            10.167919571027445,
            10.295343453554086,
            10.821781959982363,
            11.36158921429011,
            11.577914010681491,
            11.670870473964372,
            12.201154513850407,
            12.410354790461136,
            12.442474840399875,
            12.541066249841744,
            12.907775537173903,
            13.083051458515532,
            13.240998356150225,
            13.4488740147507,
            14.083375071782651,
            14.350691052036138,
            14.767809247666928,
            15.010942973711437,
            15.494372955939074,
            15.709022446714913,
            16.144712464652613,
            16.432157187956587,
            17.148196898203285,
            17.362108011448484,
            17.91316851665804,
            18.423170322268934,
            18.557563341124894,
            18.60327729894265,
            18.68688216942108,
            19.162446446970055,
            19.47985731017073,
            23.401028457262864,
            23.51808671195486,
            24.302312904933107,
            25.556302118612813,
            25.96126940749627
        ]
    },
    "born_effective_charge": {
        "avg_abs_trace": 3.6043477777777775,
        "tensors": [
            [
                [
                    1.40426,
                    -1e-05,
                    -0.05429
                ],
                [
                    -0.0,
                    1.22919,
                    0.0
                ],
                [
                    -0.01135,
                    0.0,
                    1.30924
                ]
            ],
            [
                [
                    1.40426,
                    1e-05,
                    -0.05429
                ],
                [
                    -0.0,
                    1.2292,
                    0.0
                ],
                [
                    -0.01135,
                    -0.0,
                    1.30924
                ]
            ],
            [
                [
                    8.2017,
                    -0.0001,
                    0.12142
                ],
                [
                    -0.0,
                    7.34386,
                    0.0
                ],
                [
                    0.57452,
                    3e-05,
                    6.80802
                ]
            ],
            [
                [
                    8.2017,
                    0.0001,
                    0.12142
                ],
                [
                    -0.0,
                    7.34391,
                    0.0
                ],
                [
                    0.57452,
                    -3e-05,
                    6.80802
                ]
            ],
            [
                [
                    5.55878,
                    0.79527,
                    0.76508
                ],
                [
                    0.0194,
                    6.4466,
                    1.169
                ],
                [
                    0.53624,
                    -1.18443,
                    7.28557
                ]
            ],
            [
                [
                    5.55894,
                    -0.79522,
                    0.76521
                ],
                [
                    -0.0194,
                    6.4466,
                    -1.169
                ],
                [
                    0.53632,
                    1.18425,
                    7.28565
                ]
            ],
            [
                [
                    5.55894,
                    0.79522,
                    0.76521
                ],
                [
                    0.01945,
                    6.44642,
                    1.16855
                ],
                [
                    0.53632,
                    -1.18425,
                    7.28565
                ]
            ],
            [
                [
                    5.55878,
                    -0.79527,
                    0.76508
                ],
                [
                    -0.01945,
                    6.44642,
                    -1.16855
                ],
                [
                    0.53624,
                    1.18443,
                    7.28557
                ]
            ],
            [
                [
                    -3.23471,
                    -2.47202,
                    -0.18966
                ],
                [
                    -2.16175,
                    -3.81673,
                    -0.16927
                ],
                [
                    -0.29117,
                    -0.15576,
                    -1.60829
                ]
            ],
            [
                [
                    -3.23498,
                    2.47206,
                    -0.1896
                ],
                [
                    2.16175,
                    -3.81673,
                    0.16927
                ],
                [
                    -0.29117,
                    0.15577,
                    -1.60802
                ]
            ],
            [
                [
                    -3.23498,
                    -2.47206,
                    -0.1896
                ],
                [
                    -2.1619,
                    -3.81666,
                    -0.16918
                ],
                [
                    -0.29117,
                    -0.15577,
                    -1.60802
                ]
            ],
            [
                [
                    -3.23471,
                    2.47202,
                    -0.18966
                ],
                [
                    2.1619,
                    -3.81666,
                    0.16918
                ],
                [
                    -0.29117,
                    0.15576,
                    -1.60829
                ]
            ],
            [
                [
                    -1.72301,
                    0.30638,
                    0.35427
                ],
                [
                    0.23636,
                    -2.24956,
                    1.14491
                ],
                [
                    0.29029,
                    1.3919,
                    -3.39638
                ]
            ],
            [
                [
                    -1.72313,
                    -0.30651,
                    0.35424
                ],
                [
                    -0.23636,
                    -2.24956,
                    -1.14491
                ],
                [
                    0.29048,
                    -1.39209,
                    -3.39654
                ]
            ],
            [
                [
                    -1.72313,
                    0.30651,
                    0.35424
                ],
                [
                    0.2362,
                    -2.24947,
                    1.14481
                ],
                [
                    0.29048,
                    1.39209,
                    -3.39654
                ]
            ],
            [
                [
                    -1.72301,
                    -0.30638,
                    0.35427
                ],
                [
                    -0.2362,
                    -2.24947,
                    -1.14481
                ],
                [
                    0.29029,
                    -1.3919,
                    -3.39638
                ]
            ],
            [
                [
                    -2.81873,
                    -0.73829,
                    -1.89715
                ],
                [
                    -0.99639,
                    -1.93145,
                    -0.81296
                ],
                [
                    -1.88261,
                    -0.73384,
                    -3.36766
                ]
            ],
            [
                [
                    -2.81891,
                    0.73821,
                    -1.89716
                ],
                [
                    0.99639,
                    -1.93145,
                    0.81296
                ],
                [
                    -1.883,
                    0.73362,
                    -3.36816
                ]
            ],
            [
                [
                    -2.81891,
                    -0.73821,
                    -1.89716
                ],
                [
                    -0.99633,
                    -1.93148,
                    -0.81275
                ],
                [
                    -1.883,
                    -0.73362,
                    -3.36816
                ]
            ],
            [
                [
                    -2.81873,
                    0.73829,
                    -1.89715
                ],
                [
                    0.99633,
                    -1.93148,
                    0.81275
                ],
                [
                    -1.88261,
                    0.73384,
                    -3.36766
                ]
            ],
            [
                [
                    -2.58506,
                    -1.17579,
                    0.93392
                ],
                [
                    -1.31074,
                    -2.73528,
                    0.19599
                ],
                [
                    1.06583,
                    0.10564,
                    -2.97177
                ]
            ],
            [
                [
                    -2.58515,
                    1.17574,
                    0.93371
                ],
                [
                    1.31074,
                    -2.73528,
                    -0.19599
                ],
                [
                    1.06561,
                    -0.10587,
                    -2.97167
                ]
            ],
            [
                [
                    -2.58515,
                    -1.17574,
                    0.93371
                ],
                [
                    -1.31046,
                    -2.73546,
                    0.19564
                ],
                [
                    1.06561,
                    0.10587,
                    -2.97167
                ]
            ],
            [
                [
                    -2.58506,
                    1.17579,
                    0.93392
                ],
                [
                    1.31046,
                    -2.73546,
                    -0.19564
                ],
                [
                    1.06583,
                    -0.10564,
                    -2.97177
                ]
            ]
        ]
    },
    "band_gap": 3.5882999999999994,
    "is_direct": false,
    "formula": "LiTa3O8"
}