{
    "mp_id": "mp-770771",
    "nelements": 3,
    "nsites": 28,
    "elements": [
        "O",
        "Sc",
        "Sr"
    ],
    "structure": {
        "@module": "pymatgen.core.structure",
        "@class": "Structure",
        "charge": null,
        "lattice": {
            "matrix": [
                [
                    9.61626455,
                    0.0,
                    0.0
                ],
                [
                    0.0,
                    3.16435114,
                    0.0
                ],
                [
                    0.0,
                    0.0,
                    11.21274306
                ]
            ],
            "a": 9.61626455,
            "b": 3.16435114,
            "c": 11.21274306,
            "alpha": 90.0,
            "beta": 90.0,
            "gamma": 90.0,
            "volume": 341.1952237445967
        },
        "sites": [
            {
                "species": [
                    {
                        "element": "Sr",
                        "occu": 1
                    }
                ],
                "abc": [
                    0.24496465,
                    0.75,
                    0.65413408
                ],
                "xyz": [
                    2.3556448797981577,
                    2.3732633549999997,
                    7.334637365829484
                ],
                "label": "Sr",
                "properties": {}
            },
            {
                "species": [
                    {
                        "element": "Sr",
                        "occu": 1
                    }
                ],
                "abc": [
                    0.25503535,
                    0.25,
                    0.15413408
                ],
                "xyz": [
                    2.4524873952018424,
                    0.791087785,
                    1.7282658358294847
                ],
                "label": "Sr",
                "properties": {}
            },
            {
                "species": [
                    {
                        "element": "Sr",
                        "occu": 1
                    }
                ],
                "abc": [
                    0.74496465,
                    0.75,
                    0.84586592
                ],
                "xyz": [
                    7.163777154798158,
                    2.3732633549999997,
                    9.484477224170515
                ],
                "label": "Sr",
                "properties": {}
            },
            {
                "species": [
                    {
                        "element": "Sr",
                        "occu": 1
                    }
                ],
                "abc": [
                    0.75503535,
                    0.25,
                    0.34586592
                ],
                "xyz": [
                    7.260619670201843,
                    0.791087785,
                    3.878105694170515
                ],
                "label": "Sr",
                "properties": {}
            },
            {
                "species": [
                    {
                        "element": "Sc",
                        "occu": 1
                    }
                ],
                "abc": [
                    0.07051188,
                    0.75,
                    0.89038685
                ],
                "xyz": [
                    0.678060891997854,
                    2.3732633549999997,
                    9.98367897305276
                ],
                "label": "Sc",
                "properties": {}
            },
            {
                "species": [
                    {
                        "element": "Sc",
                        "occu": 1
                    }
                ],
                "abc": [
                    0.07832481,
                    0.75,
                    0.39401574
                ],
                "xyz": [
                    0.7531920937884855,
                    2.3732633549999997,
                    4.417997254215764
                ],
                "label": "Sc",
                "properties": {}
            },
            {
                "species": [
                    {
                        "element": "Sc",
                        "occu": 1
                    }
                ],
                "abc": [
                    0.42167519,
                    0.25,
                    0.89401574
                ],
                "xyz": [
                    4.0549401812115144,
                    0.791087785,
                    10.024368784215763
                ],
                "label": "Sc",
                "properties": {}
            },
            {
                "species": [
                    {
                        "element": "Sc",
                        "occu": 1
                    }
                ],
                "abc": [
                    0.42948812,
                    0.25,
                    0.39038685
                ],
                "xyz": [
                    4.130071383002146,
                    0.791087785,
                    4.377307443052761
                ],
                "label": "Sc",
                "properties": {}
            },
            {
                "species": [
                    {
                        "element": "Sc",
                        "occu": 1
                    }
                ],
                "abc": [
                    0.57051188,
                    0.75,
                    0.60961315
                ],
                "xyz": [
                    5.486193166997854,
                    2.3732633549999997,
                    6.8354356169472394
                ],
                "label": "Sc",
                "properties": {}
            },
            {
                "species": [
                    {
                        "element": "Sc",
                        "occu": 1
                    }
                ],
                "abc": [
                    0.57832481,
                    0.75,
                    0.10598426
                ],
                "xyz": [
                    5.561324368788486,
                    2.3732633549999997,
                    1.1883742757842355
                ],
                "label": "Sc",
                "properties": {}
            },
            {
                "species": [
                    {
                        "element": "Sc",
                        "occu": 1
                    }
                ],
                "abc": [
                    0.92167519,
                    0.25,
                    0.60598426
                ],
                "xyz": [
                    8.863072456211514,
                    0.791087785,
                    6.794745805784236
                ],
                "label": "Sc",
                "properties": {}
            },
            {
                "species": [
                    {
                        "element": "Sc",
                        "occu": 1
                    }
                ],
                "abc": [
                    0.92948812,
                    0.25,
                    0.10961315
                ],
                "xyz": [
                    8.938203658002147,
                    0.791087785,
                    1.229064086947239
                ],
                "label": "Sc",
                "properties": {}
            },
            {
                "species": [
                    {
                        "element": "O",
                        "occu": 1
                    }
                ],
                "abc": [
                    0.02123746,
                    0.25,
                    0.28320916
                ],
                "xyz": [
                    0.204225033730043,
                    0.791087785,
                    3.1755515433184294
                ],
                "label": "O",
                "properties": {}
            },
            {
                "species": [
                    {
                        "element": "O",
                        "occu": 1
                    }
                ],
                "abc": [
                    0.0738665,
                    0.75,
                    0.07438683
                ],
                "xyz": [
                    0.710319805382575,
                    2.3732633549999997,
                    0.8340804118378997
                ],
                "label": "O",
                "properties": {}
            },
            {
                "species": [
                    {
                        "element": "O",
                        "occu": 1
                    }
                ],
                "abc": [
                    0.1169629,
                    0.25,
                    0.52021791
                ],
                "xyz": [
                    1.124746188935195,
                    0.791087785,
                    5.833069760040203
                ],
                "label": "O",
                "properties": {}
            },
            {
                "species": [
                    {
                        "element": "O",
                        "occu": 1
                    }
                ],
                "abc": [
                    0.20787432,
                    0.25,
                    0.84027697
                ],
                "xyz": [
                    1.9989744542713561,
                    0.791087785,
                    9.421809763845328
                ],
                "label": "O",
                "properties": {}
            },
            {
                "species": [
                    {
                        "element": "O",
                        "occu": 1
                    }
                ],
                "abc": [
                    0.29212568,
                    0.75,
                    0.34027697
                ],
                "xyz": [
                    2.809157820728644,
                    2.3732633549999997,
                    3.8154382338453283
                ],
                "label": "O",
                "properties": {}
            },
            {
                "species": [
                    {
                        "element": "O",
                        "occu": 1
                    }
                ],
                "abc": [
                    0.3830371,
                    0.75,
                    0.02021791
                ],
                "xyz": [
                    3.683386086064805,
                    2.3732633549999997,
                    0.22669823004020456
                ],
                "label": "O",
                "properties": {}
            },
            {
                "species": [
                    {
                        "element": "O",
                        "occu": 1
                    }
                ],
                "abc": [
                    0.4261335,
                    0.25,
                    0.57438683
                ],
                "xyz": [
                    4.097812469617425,
                    0.791087785,
                    6.4404519418379
                ],
                "label": "O",
                "properties": {}
            },
            {
                "species": [
                    {
                        "element": "O",
                        "occu": 1
                    }
                ],
                "abc": [
                    0.47876254,
                    0.75,
                    0.78320916
                ],
                "xyz": [
                    4.603907241269957,
                    2.3732633549999997,
                    8.78192307331843
                ],
                "label": "O",
                "properties": {}
            },
            {
                "species": [
                    {
                        "element": "O",
                        "occu": 1
                    }
                ],
                "abc": [
                    0.52123746,
                    0.25,
                    0.21679084
                ],
                "xyz": [
                    5.012357308730044,
                    0.791087785,
                    2.4308199866815703
                ],
                "label": "O",
                "properties": {}
            },
            {
                "species": [
                    {
                        "element": "O",
                        "occu": 1
                    }
                ],
                "abc": [
                    0.5738665,
                    0.75,
                    0.42561317
                ],
                "xyz": [
                    5.518452080382574,
                    2.3732633549999997,
                    4.7722911181621
                ],
                "label": "O",
                "properties": {}
            },
            {
                "species": [
                    {
                        "element": "O",
                        "occu": 1
                    }
                ],
                "abc": [
                    0.6169629,
                    0.25,
                    0.97978209
                ],
                "xyz": [
                    5.932878463935195,
                    0.791087785,
                    10.986044829959795
                ],
                "label": "O",
                "properties": {}
            },
            {
                "species": [
                    {
                        "element": "O",
                        "occu": 1
                    }
                ],
                "abc": [
                    0.70787432,
                    0.25,
                    0.65972303
                ],
                "xyz": [
                    6.807106729271355,
                    0.791087785,
                    7.397304826154671
                ],
                "label": "O",
                "properties": {}
            },
            {
                "species": [
                    {
                        "element": "O",
                        "occu": 1
                    }
                ],
                "abc": [
                    0.79212568,
                    0.75,
                    0.15972303
                ],
                "xyz": [
                    7.617290095728645,
                    2.3732633549999997,
                    1.7909332961546716
                ],
                "label": "O",
                "properties": {}
            },
            {
                "species": [
                    {
                        "element": "O",
                        "occu": 1
                    }
                ],
                "abc": [
                    0.8830371,
                    0.75,
                    0.47978209
                ],
                "xyz": [
                    8.491518361064806,
                    2.3732633549999997,
                    5.379673299959795
                ],
                "label": "O",
                "properties": {}
            },
            {
                "species": [
                    {
                        "element": "O",
                        "occu": 1
                    }
                ],
                "abc": [
                    0.9261335,
                    0.25,
                    0.92561317
                ],
                "xyz": [
                    8.905944744617425,
                    0.791087785,
                    10.3786626481621
                ],
                "label": "O",
                "properties": {}
            },
            {
                "species": [
                    {
                        "element": "O",
                        "occu": 1
                    }
                ],
                "abc": [
                    0.97876254,
                    0.75,
                    0.71679084
                ],
                "xyz": [
                    9.412039516269957,
                    2.3732633549999997,
                    8.03719151668157
                ],
                "label": "O",
                "properties": {}
            }
        ]
    },
    "spacegroup": {
        "source": "spglib",
        "symbol": "Pnma",
        "number": 62,
        "point_group": "mmm",
        "crystal_system": "orthorhombic",
        "hall": "-P 2ac 2n"
    },
    "dielectric": {
        "epsilon_ionic": [
            [
                12.0185761,
                -1e-08,
                0.0
            ],
            [
                -1e-08,
                16.86135822,
                0.0
            ],
            [
                0.0,
                0.0,
                13.74086143
            ]
        ],
        "epsilon_ionic_avg": 14.206931916666667,
        "epsilon_ionic_eig": [
            12.0185761,
            16.86135822,
            13.74086143
        ],
        "epsilon_electronic": [
            [
                4.44320329,
                -0.0,
                0.0
            ],
            [
                -0.0,
                4.78330081,
                0.0
            ],
            [
                0.0,
                0.0,
                4.63469311
            ]
        ],
        "epsilon_electronic_avg": 4.62039907,
        "epsilon_electronic_eig": [
            4.44320329,
            4.78330081,
            4.63469311
        ]
    },
    "phonon": {
        "lowest_freq": -0.05537527355427356,
        "frequency": [
            -0.05537527355427356,
            -0.05045358154468405,
            -0.028957518199693076,
            2.8018250485214904,
            3.1376029363557842,
            3.194930054927837,
            3.279893249668721,
            3.3211224246525735,
            3.456813495780557,
            3.6321382790345798,
            3.7768698008501347,
            4.116528342936711,
            4.119258736298722,
            4.168599821756884,
            4.36149465499058,
            4.509657870240543,
            4.664097630102258,
            4.699957500668973,
            4.809088107681136,
            5.256660846985704,
            5.344039007634835,
            5.57598246764819,
            5.5780257073426265,
            5.8760321598916185,
            5.919348597272259,
            6.094202331528621,
            6.676038227953785,
            7.131238501384154,
            7.6826267444389975,
            7.81541827946776,
            7.903959509554017,
            8.105082836200587,
            8.225452747801025,
            8.381983206890503,
            8.45513553905036,
            8.85867845385616,
            9.078665609235811,
            9.16600707606181,
            9.170405499681268,
            9.456165083225498,
            9.707923373639014,
            9.725018819410643,
            9.860927551569183,
            10.09268689775081,
            10.2553170768686,
            10.284220838855589,
            10.46607328943864,
            10.477185638474106,
            10.747661202777788,
            10.923456436362237,
            10.976824827335196,
            11.046759661920534,
            11.19780633968174,
            11.262038055484261,
            11.304784329048617,
            11.408166015103705,
            12.084640674511276,
            12.094111698607424,
            12.09790053518716,
            12.113374801199962,
            12.131745082280995,
            12.180898867361032,
            12.189599845446244,
            12.532232079267034,
            12.586017321801556,
            12.617030469210995,
            12.659670293154136,
            13.241809589958828,
            13.601324924983404,
            13.697058196294533,
            14.137992079180133,
            14.463551865752514,
            14.6057481605044,
            16.309604506670034,
            16.433572766100838,
            16.56589424530967,
            17.095239262449276,
            17.94122664310211,
            17.99212215505988,
            18.170733320697153,
            18.997135808454004,
            19.16207931612405,
            19.304433980565744,
            19.417623918051817
        ]
    },
    "born_effective_charge": {
        "avg_abs_trace": 2.9536280952380953,
        "tensors": [
            [
                [
                    2.69854,
                    -0.0,
                    0.06235
                ],
                [
                    -2e-05,
                    2.30652,
                    0.0002
                ],
                [
                    0.08569,
                    -0.0,
                    2.51442
                ]
            ],
            [
                [
                    2.69867,
                    -0.0,
                    -0.06228
                ],
                [
                    2e-05,
                    2.30652,
                    0.0002
                ],
                [
                    -0.08569,
                    -0.0,
                    2.51442
                ]
            ],
            [
                [
                    2.69854,
                    -0.0,
                    -0.06235
                ],
                [
                    -2e-05,
                    2.30652,
                    -0.0002
                ],
                [
                    -0.08571,
                    -0.0,
                    2.5144
                ]
            ],
            [
                [
                    2.69867,
                    -0.0,
                    0.06228
                ],
                [
                    2e-05,
                    2.30652,
                    -0.0002
                ],
                [
                    0.08571,
                    -0.0,
                    2.5144
                ]
            ],
            [
                [
                    3.4549,
                    0.0,
                    -0.21283
                ],
                [
                    -2e-05,
                    4.20003,
                    -2e-05
                ],
                [
                    -0.12652,
                    -0.0,
                    4.17826
                ]
            ],
            [
                [
                    3.61127,
                    0.0,
                    -0.37917
                ],
                [
                    0.00019,
                    4.4026,
                    0.00015
                ],
                [
                    -0.20823,
                    -0.0,
                    3.64652
                ]
            ],
            [
                [
                    3.61123,
                    0.0,
                    0.37921
                ],
                [
                    -0.00019,
                    4.4026,
                    0.00015
                ],
                [
                    0.20823,
                    -0.0,
                    3.64652
                ]
            ],
            [
                [
                    3.45493,
                    0.0,
                    0.21282
                ],
                [
                    2e-05,
                    4.20003,
                    -2e-05
                ],
                [
                    0.12652,
                    0.0,
                    4.17826
                ]
            ],
            [
                [
                    3.4549,
                    0.0,
                    0.21283
                ],
                [
                    -2e-05,
                    4.20003,
                    2e-05
                ],
                [
                    0.1265,
                    0.0,
                    4.17826
                ]
            ],
            [
                [
                    3.61127,
                    0.0,
                    0.37917
                ],
                [
                    0.00019,
                    4.4026,
                    -0.00015
                ],
                [
                    0.2083,
                    -0.0,
                    3.6465
                ]
            ],
            [
                [
                    3.61123,
                    0.0,
                    -0.37921
                ],
                [
                    -0.00019,
                    4.4026,
                    -0.00015
                ],
                [
                    -0.2083,
                    -0.0,
                    3.6465
                ]
            ],
            [
                [
                    3.45493,
                    0.0,
                    -0.21282
                ],
                [
                    2e-05,
                    4.20003,
                    2e-05
                ],
                [
                    -0.1265,
                    -0.0,
                    4.17826
                ]
            ],
            [
                [
                    -1.99133,
                    0.0,
                    -0.39922
                ],
                [
                    -0.00034,
                    -2.68261,
                    -0.00068
                ],
                [
                    -0.58115,
                    -0.0,
                    -3.21635
                ]
            ],
            [
                [
                    -2.34291,
                    0.0,
                    -0.01627
                ],
                [
                    0.00037,
                    -2.73574,
                    -0.00017
                ],
                [
                    0.09239,
                    -0.0,
                    -2.57556
                ]
            ],
            [
                [
                    -2.32832,
                    0.0,
                    0.0151
                ],
                [
                    -1e-05,
                    -2.73017,
                    0.00015
                ],
                [
                    0.04827,
                    -0.0,
                    -2.54184
                ]
            ],
            [
                [
                    -3.10217,
                    -0.0,
                    0.05776
                ],
                [
                    0.00053,
                    -2.76062,
                    -0.0002
                ],
                [
                    0.10558,
                    -0.0,
                    -2.00548
                ]
            ],
            [
                [
                    -3.10215,
                    0.0,
                    -0.05776
                ],
                [
                    -0.00053,
                    -2.76062,
                    -0.0002
                ],
                [
                    -0.10558,
                    -0.0,
                    -2.00548
                ]
            ],
            [
                [
                    -2.32832,
                    0.0,
                    -0.01503
                ],
                [
                    1e-05,
                    -2.73017,
                    0.00015
                ],
                [
                    -0.04827,
                    -0.0,
                    -2.54184
                ]
            ],
            [
                [
                    -2.34295,
                    0.0,
                    0.01624
                ],
                [
                    -0.00037,
                    -2.73574,
                    -0.00017
                ],
                [
                    -0.09239,
                    -0.0,
                    -2.57556
                ]
            ],
            [
                [
                    -1.99139,
                    0.0,
                    0.39917
                ],
                [
                    0.00034,
                    -2.68261,
                    -0.00068
                ],
                [
                    0.58115,
                    -0.0,
                    -3.21635
                ]
            ],
            [
                [
                    -1.99133,
                    0.0,
                    0.39922
                ],
                [
                    -0.00034,
                    -2.68261,
                    0.00068
                ],
                [
                    0.5811,
                    -0.0,
                    -3.21625
                ]
            ],
            [
                [
                    -2.34291,
                    0.0,
                    0.01627
                ],
                [
                    0.00037,
                    -2.73574,
                    0.00017
                ],
                [
                    -0.09242,
                    -0.0,
                    -2.57556
                ]
            ],
            [
                [
                    -2.32832,
                    0.0,
                    -0.0151
                ],
                [
                    -1e-05,
                    -2.73017,
                    -0.00015
                ],
                [
                    -0.04831,
                    -0.0,
                    -2.54176
                ]
            ],
            [
                [
                    -3.10217,
                    -0.0,
                    -0.05776
                ],
                [
                    0.00053,
                    -2.76062,
                    0.0002
                ],
                [
                    -0.10563,
                    -0.0,
                    -2.00556
                ]
            ],
            [
                [
                    -3.10215,
                    0.0,
                    0.05776
                ],
                [
                    -0.00053,
                    -2.76062,
                    0.0002
                ],
                [
                    0.10563,
                    -0.0,
                    -2.00556
                ]
            ],
            [
                [
                    -2.32832,
                    0.0,
                    0.01503
                ],
                [
                    1e-05,
                    -2.73017,
                    -0.00015
                ],
                [
                    0.04831,
                    -0.0,
                    -2.54176
                ]
            ],
            [
                [
                    -2.34295,
                    0.0,
                    -0.01624
                ],
                [
                    -0.00037,
                    -2.73574,
                    0.00017
                ],
                [
                    0.09242,
                    -0.0,
                    -2.57556
                ]
            ],
            [
                [
                    -1.99139,
                    0.0,
                    -0.39917
                ],
                [
                    0.00034,
                    -2.68261,
                    0.00068
                ],
                [
                    -0.5811,
                    -0.0,
                    -3.21625
                ]
            ]
        ]
    },
    "band_gap": 3.3371999999999997,
    "is_direct": true,
    "formula": "SrSc2O4"
}