{
    "mp_id": "mp-754326",
    "nelements": 3,
    "nsites": 4,
    "elements": [
        "Ag",
        "Na",
        "O"
    ],
    "structure": {
        "@module": "pymatgen.core.structure",
        "@class": "Structure",
        "charge": null,
        "lattice": {
            "matrix": [
                [
                    3.1650072,
                    -1.47191501,
                    -0.00016983
                ],
                [
                    3.1650072,
                    1.47191501,
                    -0.00016983
                ],
                [
                    -3.11895819,
                    0.0,
                    5.32838056
                ]
            ],
            "a": 3.4905306762091874,
            "b": 3.4905306762091874,
            "c": 6.174102330149217,
            "alpha": 117.26446917834328,
            "beta": 117.26446917834328,
            "gamma": 49.88241186046117,
            "volume": 49.64425826178609
        },
        "sites": [
            {
                "species": [
                    {
                        "element": "Na",
                        "occu": 1
                    }
                ],
                "abc": [
                    0.0,
                    0.0,
                    0.5
                ],
                "xyz": [
                    -1.559479095,
                    0.0,
                    2.66419028
                ],
                "label": "Na",
                "properties": {}
            },
            {
                "species": [
                    {
                        "element": "Ag",
                        "occu": 1
                    }
                ],
                "abc": [
                    0.0,
                    0.0,
                    0.0
                ],
                "xyz": [
                    0.0,
                    0.0,
                    0.0
                ],
                "label": "Ag",
                "properties": {}
            },
            {
                "species": [
                    {
                        "element": "O",
                        "occu": 1
                    }
                ],
                "abc": [
                    0.56897837,
                    0.56897837,
                    0.2424207
                ],
                "xyz": [
                    2.8455412476979944,
                    0.0,
                    1.2915164860284378
                ],
                "label": "O",
                "properties": {}
            },
            {
                "species": [
                    {
                        "element": "O",
                        "occu": 1
                    }
                ],
                "abc": [
                    0.43102163,
                    0.43102163,
                    0.7575793
                ],
                "xyz": [
                    0.36551496230200486,
                    0.0,
                    4.036524413971563
                ],
                "label": "O",
                "properties": {}
            }
        ]
    },
    "spacegroup": {
        "source": "spglib",
        "symbol": "C2/m",
        "number": 12,
        "point_group": "2/m",
        "crystal_system": "monoclinic",
        "hall": "-C 2y"
    },
    "dielectric": {
        "epsilon_ionic": [
            [
                2.13562984,
                2e-08,
                -0.34235129
            ],
            [
                2e-08,
                5.8087747,
                3e-08
            ],
            [
                -0.34235129,
                3e-08,
                2.73891424
            ]
        ],
        "epsilon_ionic_avg": 3.561106259999999,
        "epsilon_ionic_eig": [
            1.9809909615127312,
            2.893553118487268,
            5.808774699999999
        ],
        "epsilon_electronic": [
            [
                3.13172238,
                0.0,
                -0.24004146
            ],
            [
                0.0,
                9.11820382,
                0.0
            ],
            [
                -0.24003599,
                0.0,
                4.62727679
            ]
        ],
        "epsilon_electronic_avg": 5.62573433,
        "epsilon_electronic_eig": [
            3.0941402164242136,
            4.664858953575786,
            9.11820382
        ]
    },
    "phonon": {
        "lowest_freq": -0.030085911637973025,
        "frequency": [
            -0.030085911637973025,
            -0.013608946441473445,
            -0.008191583179709817,
            4.419986225430627,
            5.044805368600605,
            5.052018239419111,
            7.008489579867143,
            8.531985531428646,
            13.99133409958399,
            15.703529609059535,
            16.126012601564195,
            17.506750663938117
        ]
    },
    "born_effective_charge": {
        "avg_abs_trace": 1.702405,
        "tensors": [
            [
                [
                    1.02993,
                    0.0,
                    -0.13844
                ],
                [
                    0.0,
                    1.00589,
                    0.0
                ],
                [
                    -0.13897,
                    0.0,
                    1.5588
                ]
            ],
            [
                [
                    0.96586,
                    0.0,
                    -0.02334
                ],
                [
                    0.0,
                    4.85554,
                    0.0
                ],
                [
                    -0.29155,
                    0.0,
                    0.79841
                ]
            ],
            [
                [
                    -0.99794,
                    0.0,
                    0.08076
                ],
                [
                    0.00019,
                    -2.93072,
                    -0.00069
                ],
                [
                    0.2154,
                    0.0,
                    -1.17859
                ]
            ],
            [
                [
                    -0.99785,
                    0.0,
                    0.08103
                ],
                [
                    -0.00019,
                    -2.93072,
                    0.00069
                ],
                [
                    0.21512,
                    0.0,
                    -1.17861
                ]
            ]
        ]
    },
    "band_gap": 0.9633000000000003,
    "is_direct": false,
    "formula": "NaAgO2"
}