{
    "mp_id": "mp-768232",
    "nelements": 3,
    "nsites": 28,
    "elements": [
        "O",
        "Rb",
        "Sb"
    ],
    "structure": {
        "@module": "pymatgen.core.structure",
        "@class": "Structure",
        "charge": null,
        "lattice": {
            "matrix": [
                [
                    8.70348677,
                    0.0,
                    0.0
                ],
                [
                    0.0,
                    8.70348677,
                    0.0
                ],
                [
                    0.0,
                    0.0,
                    8.70348677
                ]
            ],
            "a": 8.70348677,
            "b": 8.70348677,
            "c": 8.70348677,
            "alpha": 90.0,
            "beta": 90.0,
            "gamma": 90.0,
            "volume": 659.295058218738
        },
        "sites": [
            {
                "species": [
                    {
                        "element": "Rb",
                        "occu": 1
                    }
                ],
                "abc": [
                    0.02107376,
                    0.02107376,
                    0.02107376
                ],
                "xyz": [
                    0.18341519135415518,
                    0.18341519135415518,
                    0.18341519135415518
                ],
                "label": "Rb",
                "properties": {}
            },
            {
                "species": [
                    {
                        "element": "Rb",
                        "occu": 1
                    }
                ],
                "abc": [
                    0.21540394,
                    0.28459606,
                    0.71540394
                ],
                "xyz": [
                    1.8747653419958736,
                    2.476978043004126,
                    6.226508726995873
                ],
                "label": "Rb",
                "properties": {}
            },
            {
                "species": [
                    {
                        "element": "Rb",
                        "occu": 1
                    }
                ],
                "abc": [
                    0.22004299,
                    0.72004299,
                    0.77995701
                ],
                "xyz": [
                    1.915141252296242,
                    6.266884637296243,
                    6.788345517703757
                ],
                "label": "Rb",
                "properties": {}
            },
            {
                "species": [
                    {
                        "element": "Rb",
                        "occu": 1
                    }
                ],
                "abc": [
                    0.27995701,
                    0.27995701,
                    0.27995701
                ],
                "xyz": [
                    2.4366021327037575,
                    2.4366021327037575,
                    2.4366021327037575
                ],
                "label": "Rb",
                "properties": {}
            },
            {
                "species": [
                    {
                        "element": "Rb",
                        "occu": 1
                    }
                ],
                "abc": [
                    0.28459606,
                    0.71540394,
                    0.21540394
                ],
                "xyz": [
                    2.476978043004126,
                    6.226508726995873,
                    1.8747653419958736
                ],
                "label": "Rb",
                "properties": {}
            },
            {
                "species": [
                    {
                        "element": "Rb",
                        "occu": 1
                    }
                ],
                "abc": [
                    0.47892624,
                    0.97892624,
                    0.52107376
                ],
                "xyz": [
                    4.168328193645845,
                    8.520071578645844,
                    4.5351585763541555
                ],
                "label": "Rb",
                "properties": {}
            },
            {
                "species": [
                    {
                        "element": "Rb",
                        "occu": 1
                    }
                ],
                "abc": [
                    0.52107376,
                    0.47892624,
                    0.97892624
                ],
                "xyz": [
                    4.5351585763541555,
                    4.168328193645845,
                    8.520071578645844
                ],
                "label": "Rb",
                "properties": {}
            },
            {
                "species": [
                    {
                        "element": "Rb",
                        "occu": 1
                    }
                ],
                "abc": [
                    0.71540394,
                    0.21540394,
                    0.28459606
                ],
                "xyz": [
                    6.226508726995873,
                    1.8747653419958736,
                    2.476978043004126
                ],
                "label": "Rb",
                "properties": {}
            },
            {
                "species": [
                    {
                        "element": "Rb",
                        "occu": 1
                    }
                ],
                "abc": [
                    0.72004299,
                    0.77995701,
                    0.22004299
                ],
                "xyz": [
                    6.266884637296243,
                    6.788345517703757,
                    1.915141252296242
                ],
                "label": "Rb",
                "properties": {}
            },
            {
                "species": [
                    {
                        "element": "Rb",
                        "occu": 1
                    }
                ],
                "abc": [
                    0.77995701,
                    0.22004299,
                    0.72004299
                ],
                "xyz": [
                    6.788345517703757,
                    1.915141252296242,
                    6.266884637296243
                ],
                "label": "Rb",
                "properties": {}
            },
            {
                "species": [
                    {
                        "element": "Rb",
                        "occu": 1
                    }
                ],
                "abc": [
                    0.78459606,
                    0.78459606,
                    0.78459606
                ],
                "xyz": [
                    6.828721428004126,
                    6.828721428004126,
                    6.828721428004126
                ],
                "label": "Rb",
                "properties": {}
            },
            {
                "species": [
                    {
                        "element": "Rb",
                        "occu": 1
                    }
                ],
                "abc": [
                    0.97892624,
                    0.52107376,
                    0.47892624
                ],
                "xyz": [
                    8.520071578645844,
                    4.5351585763541555,
                    4.168328193645845
                ],
                "label": "Rb",
                "properties": {}
            },
            {
                "species": [
                    {
                        "element": "Sb",
                        "occu": 1
                    }
                ],
                "abc": [
                    0.00943172,
                    0.99056828,
                    0.49056828
                ],
                "xyz": [
                    0.08208885023834439,
                    8.621397919761655,
                    4.2696545347616555
                ],
                "label": "Sb",
                "properties": {}
            },
            {
                "species": [
                    {
                        "element": "Sb",
                        "occu": 1
                    }
                ],
                "abc": [
                    0.49056828,
                    0.00943172,
                    0.99056828
                ],
                "xyz": [
                    4.2696545347616555,
                    0.08208885023834439,
                    8.621397919761655
                ],
                "label": "Sb",
                "properties": {}
            },
            {
                "species": [
                    {
                        "element": "Sb",
                        "occu": 1
                    }
                ],
                "abc": [
                    0.50943172,
                    0.50943172,
                    0.50943172
                ],
                "xyz": [
                    4.433832235238344,
                    4.433832235238344,
                    4.433832235238344
                ],
                "label": "Sb",
                "properties": {}
            },
            {
                "species": [
                    {
                        "element": "Sb",
                        "occu": 1
                    }
                ],
                "abc": [
                    0.99056828,
                    0.49056828,
                    0.00943172
                ],
                "xyz": [
                    8.621397919761655,
                    4.2696545347616555,
                    0.08208885023834439
                ],
                "label": "Sb",
                "properties": {}
            },
            {
                "species": [
                    {
                        "element": "O",
                        "occu": 1
                    }
                ],
                "abc": [
                    0.00544617,
                    0.21137651,
                    0.4484116
                ],
                "xyz": [
                    0.0474006685421709,
                    1.8397126582737726,
                    3.902744428114532
                ],
                "label": "O",
                "properties": {}
            },
            {
                "species": [
                    {
                        "element": "O",
                        "occu": 1
                    }
                ],
                "abc": [
                    0.0515884,
                    0.99455383,
                    0.71137651
                ],
                "xyz": [
                    0.448998956885468,
                    8.656086101457829,
                    6.191456043273773
                ],
                "label": "O",
                "properties": {}
            },
            {
                "species": [
                    {
                        "element": "O",
                        "occu": 1
                    }
                ],
                "abc": [
                    0.21137651,
                    0.4484116,
                    0.00544617
                ],
                "xyz": [
                    1.8397126582737726,
                    3.902744428114532,
                    0.0474006685421709
                ],
                "label": "O",
                "properties": {}
            },
            {
                "species": [
                    {
                        "element": "O",
                        "occu": 1
                    }
                ],
                "abc": [
                    0.28862349,
                    0.5515884,
                    0.50544617
                ],
                "xyz": [
                    2.512030726726227,
                    4.800742341885468,
                    4.399144053542171
                ],
                "label": "O",
                "properties": {}
            },
            {
                "species": [
                    {
                        "element": "O",
                        "occu": 1
                    }
                ],
                "abc": [
                    0.4484116,
                    0.00544617,
                    0.21137651
                ],
                "xyz": [
                    3.902744428114532,
                    0.0474006685421709,
                    1.8397126582737726
                ],
                "label": "O",
                "properties": {}
            },
            {
                "species": [
                    {
                        "element": "O",
                        "occu": 1
                    }
                ],
                "abc": [
                    0.49455383,
                    0.78862349,
                    0.9484116
                ],
                "xyz": [
                    4.304342716457829,
                    6.863774111726227,
                    8.254487813114531
                ],
                "label": "O",
                "properties": {}
            },
            {
                "species": [
                    {
                        "element": "O",
                        "occu": 1
                    }
                ],
                "abc": [
                    0.50544617,
                    0.28862349,
                    0.5515884
                ],
                "xyz": [
                    4.399144053542171,
                    2.512030726726227,
                    4.800742341885468
                ],
                "label": "O",
                "properties": {}
            },
            {
                "species": [
                    {
                        "element": "O",
                        "occu": 1
                    }
                ],
                "abc": [
                    0.5515884,
                    0.50544617,
                    0.28862349
                ],
                "xyz": [
                    4.800742341885468,
                    4.399144053542171,
                    2.512030726726227
                ],
                "label": "O",
                "properties": {}
            },
            {
                "species": [
                    {
                        "element": "O",
                        "occu": 1
                    }
                ],
                "abc": [
                    0.71137651,
                    0.0515884,
                    0.99455383
                ],
                "xyz": [
                    6.191456043273773,
                    0.448998956885468,
                    8.656086101457829
                ],
                "label": "O",
                "properties": {}
            },
            {
                "species": [
                    {
                        "element": "O",
                        "occu": 1
                    }
                ],
                "abc": [
                    0.78862349,
                    0.9484116,
                    0.49455383
                ],
                "xyz": [
                    6.863774111726227,
                    8.254487813114531,
                    4.304342716457829
                ],
                "label": "O",
                "properties": {}
            },
            {
                "species": [
                    {
                        "element": "O",
                        "occu": 1
                    }
                ],
                "abc": [
                    0.9484116,
                    0.49455383,
                    0.78862349
                ],
                "xyz": [
                    8.254487813114531,
                    4.304342716457829,
                    6.863774111726227
                ],
                "label": "O",
                "properties": {}
            },
            {
                "species": [
                    {
                        "element": "O",
                        "occu": 1
                    }
                ],
                "abc": [
                    0.99455383,
                    0.71137651,
                    0.0515884
                ],
                "xyz": [
                    8.656086101457829,
                    6.191456043273773,
                    0.448998956885468
                ],
                "label": "O",
                "properties": {}
            }
        ]
    },
    "spacegroup": {
        "source": "spglib",
        "symbol": "P2_13",
        "number": 198,
        "point_group": "23",
        "crystal_system": "cubic",
        "hall": "P 2ac 2ab 3"
    },
    "dielectric": {
        "epsilon_ionic": [
            [
                4.58456887,
                -1.79e-06,
                -1.82e-06
            ],
            [
                -1.79e-06,
                4.58460987,
                -1.84e-06
            ],
            [
                -1.82e-06,
                -1.84e-06,
                4.58457507
            ]
        ],
        "epsilon_ionic_avg": 4.584584603333332,
        "epsilon_ionic_eig": [
            4.58456825719365,
            4.584575516095485,
            4.58461003671086
        ],
        "epsilon_electronic": [
            [
                3.17867526,
                0.0,
                0.0
            ],
            [
                0.0,
                3.17867526,
                0.0
            ],
            [
                -0.0,
                0.0,
                3.17867526
            ]
        ],
        "epsilon_electronic_avg": 3.17867526,
        "epsilon_electronic_eig": [
            3.17867526,
            3.17867526,
            3.17867526
        ]
    },
    "phonon": {
        "lowest_freq": -0.01958917899069127,
        "frequency": [
            -0.01958917899069127,
            -0.01958917899069127,
            -0.01958917899069127,
            1.2804476936876878,
            1.2804476936876878,
            1.5046716109112412,
            1.5046716109112412,
            1.5046716109112412,
            1.5373674480158348,
            1.7041792668592122,
            1.7041792668592122,
            1.7041792668592122,
            1.953722654258464,
            1.953722654258464,
            1.953722654258464,
            1.9819771230767984,
            1.9819771230767984,
            2.016203309447031,
            2.045858694827711,
            2.045858694827711,
            2.045858694827711,
            2.2375144140427063,
            2.2375144140427063,
            2.2375144140427063,
            2.354009105428114,
            2.354009105428114,
            2.553998495241289,
            2.5758838332165084,
            2.5758838332165084,
            2.5758838332165084,
            2.7079937223700163,
            2.7079937223700163,
            2.7079937223700163,
            3.003197036033642,
            3.003197036033642,
            3.003197036033642,
            3.112106869332039,
            3.112106869332039,
            3.112106869332039,
            3.4210156376043246,
            3.4210156376043246,
            3.4210156376043246,
            3.462633248281575,
            3.462633248281575,
            3.467665512176552,
            3.539175021981155,
            3.539175021981155,
            3.539175021981155,
            4.148329749103501,
            4.148329749103501,
            4.148329749103501,
            4.294564584138025,
            4.294564584138025,
            4.43825147216799,
            4.43825147216799,
            4.43825147216799,
            4.486404728792851,
            4.668624341868069,
            4.668624341868069,
            4.668624341868069,
            7.826682300041598,
            7.826682300041598,
            7.897228338820862,
            7.897228338820862,
            7.897228338820862,
            8.84391653042312,
            8.8449004829026,
            8.8449004829026,
            8.8449004829026,
            9.360883240970931,
            9.360883240970931,
            9.360883240970931,
            17.751666256575604,
            17.751666256575604,
            17.994901714885405,
            17.994901714885405,
            17.994901714885405,
            18.385593984736115,
            18.385593984736115,
            18.385593984736115,
            19.53027048297438,
            19.71286377914987,
            19.71286377914987,
            19.71286377914987
        ]
    },
    "born_effective_charge": {
        "avg_abs_trace": 1.5277690476190477,
        "tensors": [
            [
                [
                    1.33793,
                    -0.04651,
                    0.02209
                ],
                [
                    0.02208,
                    1.33793,
                    -0.04651
                ],
                [
                    -0.04651,
                    0.02209,
                    1.33794
                ]
            ],
            [
                [
                    1.14301,
                    0.09091,
                    -0.10316
                ],
                [
                    0.10325,
                    1.14309,
                    0.09089
                ],
                [
                    -0.09091,
                    0.10316,
                    1.14301
                ]
            ],
            [
                [
                    1.17039,
                    0.00438,
                    -0.03866
                ],
                [
                    0.03865,
                    1.1704,
                    -0.00438
                ],
                [
                    -0.0045,
                    -0.03857,
                    1.1704
                ]
            ],
            [
                [
                    1.17039,
                    0.0045,
                    0.03858
                ],
                [
                    0.03858,
                    1.17041,
                    0.0045
                ],
                [
                    0.0045,
                    0.03857,
                    1.1704
                ]
            ],
            [
                [
                    1.14309,
                    0.0909,
                    0.10325
                ],
                [
                    0.10316,
                    1.14301,
                    -0.09091
                ],
                [
                    0.09091,
                    -0.10316,
                    1.14301
                ]
            ],
            [
                [
                    1.33832,
                    -0.04636,
                    -0.02169
                ],
                [
                    0.02169,
                    1.33833,
                    0.04635
                ],
                [
                    0.04651,
                    -0.02209,
                    1.33794
                ]
            ],
            [
                [
                    1.33793,
                    0.04651,
                    -0.02209
                ],
                [
                    -0.02169,
                    1.33833,
                    -0.04635
                ],
                [
                    0.04635,
                    0.02169,
                    1.33832
                ]
            ],
            [
                [
                    1.14301,
                    -0.09091,
                    0.10316
                ],
                [
                    -0.10316,
                    1.14301,
                    0.09091
                ],
                [
                    0.09091,
                    0.10326,
                    1.14309
                ]
            ],
            [
                [
                    1.17039,
                    -0.00438,
                    0.03866
                ],
                [
                    -0.03858,
                    1.17041,
                    -0.0045
                ],
                [
                    0.00438,
                    -0.03866,
                    1.17039
                ]
            ],
            [
                [
                    1.17039,
                    -0.0045,
                    -0.03858
                ],
                [
                    -0.03865,
                    1.1704,
                    0.00438
                ],
                [
                    -0.00438,
                    0.03866,
                    1.17039
                ]
            ],
            [
                [
                    1.14309,
                    -0.0909,
                    -0.10325
                ],
                [
                    -0.10325,
                    1.14309,
                    -0.09089
                ],
                [
                    -0.09091,
                    -0.10326,
                    1.14309
                ]
            ],
            [
                [
                    1.33832,
                    0.04636,
                    0.02169
                ],
                [
                    -0.02208,
                    1.33793,
                    0.04651
                ],
                [
                    -0.04635,
                    -0.02169,
                    1.33832
                ]
            ],
            [
                [
                    1.69541,
                    0.20648,
                    0.21705
                ],
                [
                    0.21731,
                    1.69582,
                    -0.20671
                ],
                [
                    0.20671,
                    -0.21731,
                    1.69583
                ]
            ],
            [
                [
                    1.69583,
                    0.20671,
                    -0.21731
                ],
                [
                    0.21705,
                    1.6954,
                    0.20647
                ],
                [
                    -0.20671,
                    0.21731,
                    1.69583
                ]
            ],
            [
                [
                    1.69541,
                    -0.20648,
                    -0.21705
                ],
                [
                    -0.21705,
                    1.6954,
                    -0.20647
                ],
                [
                    -0.20647,
                    -0.21705,
                    1.69541
                ]
            ],
            [
                [
                    1.69583,
                    -0.20671,
                    0.21731
                ],
                [
                    -0.21731,
                    1.69582,
                    0.20671
                ],
                [
                    0.20647,
                    0.21705,
                    1.69541
                ]
            ],
            [
                [
                    -1.34815,
                    -0.2426,
                    0.0593
                ],
                [
                    0.06519,
                    -2.65639,
                    0.11543
                ],
                [
                    0.01163,
                    0.45031,
                    -1.34393
                ]
            ],
            [
                [
                    -1.34309,
                    0.01143,
                    -0.44673
                ],
                [
                    0.05884,
                    -1.34828,
                    0.24072
                ],
                [
                    -0.11544,
                    -0.06519,
                    -2.65638
                ]
            ],
            [
                [
                    -2.65638,
                    0.11544,
                    0.06519
                ],
                [
                    0.45029,
                    -1.34394,
                    0.01163
                ],
                [
                    -0.2426,
                    0.0593,
                    -1.34816
                ]
            ],
            [
                [
                    -2.65454,
                    0.11502,
                    -0.06539
                ],
                [
                    0.44673,
                    -1.3431,
                    -0.01142
                ],
                [
                    0.2426,
                    -0.0593,
                    -1.34816
                ]
            ],
            [
                [
                    -1.34393,
                    0.01164,
                    0.45029
                ],
                [
                    0.0593,
                    -1.34816,
                    -0.24259
                ],
                [
                    0.11544,
                    0.06519,
                    -2.65638
                ]
            ],
            [
                [
                    -1.34828,
                    -0.24071,
                    -0.05885
                ],
                [
                    0.06539,
                    -2.65453,
                    -0.11502
                ],
                [
                    -0.01163,
                    -0.45031,
                    -1.34393
                ]
            ],
            [
                [
                    -1.34815,
                    0.2426,
                    -0.0593
                ],
                [
                    -0.06539,
                    -2.65453,
                    0.11502
                ],
                [
                    -0.01143,
                    0.44673,
                    -1.34309
                ]
            ],
            [
                [
                    -1.34309,
                    -0.01143,
                    0.44673
                ],
                [
                    -0.0593,
                    -1.34816,
                    0.24259
                ],
                [
                    0.11502,
                    -0.06539,
                    -2.65454
                ]
            ],
            [
                [
                    -2.65638,
                    -0.11544,
                    -0.06519
                ],
                [
                    -0.44673,
                    -1.3431,
                    0.01142
                ],
                [
                    0.24071,
                    0.05885,
                    -1.34828
                ]
            ],
            [
                [
                    -2.65454,
                    -0.11502,
                    0.06539
                ],
                [
                    -0.45029,
                    -1.34394,
                    -0.01163
                ],
                [
                    -0.24071,
                    -0.05885,
                    -1.34828
                ]
            ],
            [
                [
                    -1.34393,
                    -0.01164,
                    -0.45029
                ],
                [
                    -0.05884,
                    -1.34828,
                    -0.24072
                ],
                [
                    -0.11502,
                    0.06539,
                    -2.65454
                ]
            ],
            [
                [
                    -1.34828,
                    0.24071,
                    0.05885
                ],
                [
                    -0.06519,
                    -2.65639,
                    -0.11543
                ],
                [
                    0.01143,
                    -0.44673,
                    -1.34309
                ]
            ]
        ]
    },
    "band_gap": 3.1811000000000003,
    "is_direct": false,
    "formula": "Rb3SbO3"
}