{
    "mp_id": "mp-7210",
    "nelements": 3,
    "nsites": 18,
    "elements": [
        "B",
        "Cd",
        "O"
    ],
    "structure": {
        "@module": "pymatgen.core.structure",
        "@class": "Structure",
        "charge": null,
        "lattice": {
            "matrix": [
                [
                    3.44930633,
                    0.00020659,
                    -0.00013032
                ],
                [
                    -0.21669502,
                    6.37845944,
                    -0.00086307
                ],
                [
                    -0.13850842,
                    -2.7179576,
                    9.6007418
                ]
            ],
            "a": 3.4493063386485114,
            "b": 6.382139320346098,
            "c": 9.979014039877683,
            "alpha": 105.77552183223558,
            "beta": 90.79830688044484,
            "gamma": 91.94232579919168,
            "volume": 211.22056813958548
        },
        "sites": [
            {
                "species": [
                    {
                        "element": "Cd",
                        "occu": 1
                    }
                ],
                "abc": [
                    0.75131672,
                    0.22482225,
                    0.87420021
                ],
                "xyz": [
                    2.4217195663198745,
                    -0.9418642873353715,
                    8.39267854878152
                ],
                "label": "Cd",
                "properties": {}
            },
            {
                "species": [
                    {
                        "element": "Cd",
                        "occu": 1
                    }
                ],
                "abc": [
                    0.24868328,
                    0.77517775,
                    0.12579979
                ],
                "xyz": [
                    0.6723833236801257,
                    4.602572717335372,
                    1.20706986121848
                ],
                "label": "Cd",
                "properties": {}
            },
            {
                "species": [
                    {
                        "element": "Cd",
                        "occu": 1
                    }
                ],
                "abc": [
                    0.7728535,
                    0.65207017,
                    0.4074957
                ],
                "xyz": [
                    2.468066525619308,
                    3.05180676040115,
                    3.9115974998405183
                ],
                "label": "Cd",
                "properties": {}
            },
            {
                "species": [
                    {
                        "element": "Cd",
                        "occu": 1
                    }
                ],
                "abc": [
                    0.2271465,
                    0.34792983,
                    0.5925043
                ],
                "xyz": [
                    0.6260363643806924,
                    0.6089016695988503,
                    5.688150910159481
                ],
                "label": "Cd",
                "properties": {}
            },
            {
                "species": [
                    {
                        "element": "B",
                        "occu": 1
                    }
                ],
                "abc": [
                    0.67601104,
                    0.12468588,
                    0.3189834
                ],
                "xyz": [
                    2.260568463421338,
                    -0.07153987086237912,
                    3.0622815514849355
                ],
                "label": "B",
                "properties": {}
            },
            {
                "species": [
                    {
                        "element": "B",
                        "occu": 1
                    }
                ],
                "abc": [
                    0.32398896,
                    0.87531412,
                    0.6810166
                ],
                "xyz": [
                    0.8335344265786624,
                    3.732248300862379,
                    6.537466858515064
                ],
                "label": "B",
                "properties": {}
            },
            {
                "species": [
                    {
                        "element": "B",
                        "occu": 1
                    }
                ],
                "abc": [
                    0.6733343,
                    0.67360131,
                    0.84415827
                ],
                "xyz": [
                    2.0596471856460097,
                    2.0022913531495514,
                    8.103876474596087
                ],
                "label": "B",
                "properties": {}
            },
            {
                "species": [
                    {
                        "element": "B",
                        "occu": 1
                    }
                ],
                "abc": [
                    0.3266657,
                    0.32639869,
                    0.15584173
                ],
                "xyz": [
                    1.0344557043539908,
                    1.658417076850449,
                    1.4958719354039116
                ],
                "label": "B",
                "properties": {}
            },
            {
                "species": [
                    {
                        "element": "O",
                        "occu": 1
                    }
                ],
                "abc": [
                    0.47192125,
                    0.151795,
                    0.20061961
                ],
                "xyz": [
                    1.5671202291234965,
                    0.42304015119730165,
                    1.9259045651387479
                ],
                "label": "O",
                "properties": {}
            },
            {
                "species": [
                    {
                        "element": "O",
                        "occu": 1
                    }
                ],
                "abc": [
                    0.52807875,
                    0.848205,
                    0.79938039
                ],
                "xyz": [
                    1.526982660876504,
                    3.2376682788026985,
                    7.673843844861253
                ],
                "label": "O",
                "properties": {}
            },
            {
                "species": [
                    {
                        "element": "O",
                        "occu": 1
                    }
                ],
                "abc": [
                    0.26906964,
                    0.70450182,
                    0.56386958
                ],
                "xyz": [
                    0.6973408918760212,
                    2.9611182610033,
                    5.412923146913172
                ],
                "label": "O",
                "properties": {}
            },
            {
                "species": [
                    {
                        "element": "O",
                        "occu": 1
                    }
                ],
                "abc": [
                    0.73093036,
                    0.29549818,
                    0.43613042
                ],
                "xyz": [
                    2.3967619981239787,
                    0.6995901689966997,
                    4.186825263086829
                ],
                "label": "O",
                "properties": {}
            },
            {
                "species": [
                    {
                        "element": "O",
                        "occu": 1
                    }
                ],
                "abc": [
                    0.20263945,
                    0.08197073,
                    0.69828265
                ],
                "xyz": [
                    0.5844848620510409,
                    -1.3750137956594735,
                    6.703934271618705
                ],
                "label": "O",
                "properties": {}
            },
            {
                "species": [
                    {
                        "element": "O",
                        "occu": 1
                    }
                ],
                "abc": [
                    0.79736055,
                    0.91802927,
                    0.30171735
                ],
                "xyz": [
                    2.5096180279489593,
                    5.035722225659473,
                    2.895814138381295
                ],
                "label": "O",
                "properties": {}
            },
            {
                "species": [
                    {
                        "element": "O",
                        "occu": 1
                    }
                ],
                "abc": [
                    0.25768175,
                    0.29095333,
                    0.0168648
                ],
                "xyz": [
                    0.823439236935445,
                    1.8100494374781877,
                    0.1616298961324569
                ],
                "label": "O",
                "properties": {}
            },
            {
                "species": [
                    {
                        "element": "O",
                        "occu": 1
                    }
                ],
                "abc": [
                    0.74231825,
                    0.70904667,
                    0.9831352
                ],
                "xyz": [
                    2.2706636530645548,
                    1.8506589925218124,
                    9.438118513867542
                ],
                "label": "O",
                "properties": {}
            },
            {
                "species": [
                    {
                        "element": "O",
                        "occu": 1
                    }
                ],
                "abc": [
                    0.27206532,
                    0.52446777,
                    0.24942956
                ],
                "xyz": [
                    0.7902389822830751,
                    2.6674136362400516,
                    2.394220694896852
                ],
                "label": "O",
                "properties": {}
            },
            {
                "species": [
                    {
                        "element": "O",
                        "occu": 1
                    }
                ],
                "abc": [
                    0.72793468,
                    0.47553223,
                    0.75057044
                ],
                "xyz": [
                    2.303863907716925,
                    0.993294793759949,
                    7.205527715103147
                ],
                "label": "O",
                "properties": {}
            }
        ]
    },
    "spacegroup": {
        "source": "spglib",
        "symbol": "P-1",
        "number": 2,
        "point_group": "-1",
        "crystal_system": "triclinic",
        "hall": "-P 1"
    },
    "dielectric": {
        "epsilon_ionic": [
            [
                6.03580876,
                -1.34926753,
                0.30448699
            ],
            [
                -1.34926753,
                7.31888675,
                0.53541679
            ],
            [
                0.30448699,
                0.53541679,
                4.7017695
            ]
        ],
        "epsilon_ionic_avg": 6.018821669999999,
        "epsilon_ionic_eig": [
            8.196130311423191,
            5.527615037019533,
            4.332719661557274
        ],
        "epsilon_electronic": [
            [
                3.2929985,
                -0.14847132,
                0.10920555
            ],
            [
                -0.14847056,
                3.52043245,
                0.04129149
            ],
            [
                0.10920548,
                0.04129013,
                3.64478625
            ]
        ],
        "epsilon_electronic_avg": 3.486072399999999,
        "epsilon_electronic_eig": [
            3.1899888699351853,
            3.5922881207712924,
            3.6759402092935183
        ]
    },
    "phonon": {
        "lowest_freq": -0.04436596244909156,
        "frequency": [
            -0.04436596244909156,
            -0.03883798467642089,
            -0.034184281051935,
            1.7611537456682673,
            1.7667509784969162,
            2.0397637937201663,
            2.3918092672754483,
            2.637644491430354,
            2.91715105921954,
            3.2206496957060367,
            3.3748744662275487,
            3.771421908943725,
            3.9362698641466345,
            4.427794047801278,
            4.636143839969379,
            4.800197805559837,
            5.978010765909484,
            6.44876519593283,
            6.6456563495758125,
            6.7341392435615735,
            6.913185205853927,
            7.082241308027564,
            7.443549159811601,
            8.056703537006829,
            8.067936493590997,
            8.167372501553212,
            8.671931322627843,
            9.203610024107851,
            9.61280633381477,
            9.859621782332686,
            12.640401580710252,
            12.840877910072923,
            14.385777811295949,
            14.467292894840865,
            16.870931277775547,
            17.166045802015617,
            18.953951768208047,
            18.979724302351567,
            19.749174090119112,
            19.78584108127206,
            20.26224570744576,
            20.269567313598042,
            23.41240379405715,
            23.528145946366273,
            29.38557789677102,
            29.413073874530227,
            34.58107018225498,
            35.00865005404411,
            37.06292799514537,
            37.06924433194077,
            39.28170600946085,
            39.310614839601016,
            41.02893585178279,
            41.565672245597696
        ]
    },
    "born_effective_charge": {
        "avg_abs_trace": 2.0522335185185185,
        "tensors": [
            [
                [
                    2.48969,
                    0.01051,
                    0.00166
                ],
                [
                    0.04574,
                    2.31736,
                    0.11885
                ],
                [
                    0.00147,
                    0.11355,
                    2.41069
                ]
            ],
            [
                [
                    2.48968,
                    0.01052,
                    0.00165
                ],
                [
                    0.04574,
                    2.31736,
                    0.11884
                ],
                [
                    0.00146,
                    0.11357,
                    2.41066
                ]
            ],
            [
                [
                    2.46389,
                    0.00854,
                    0.01928
                ],
                [
                    0.02122,
                    2.33063,
                    -0.15784
                ],
                [
                    0.00814,
                    -0.17065,
                    2.45568
                ]
            ],
            [
                [
                    2.46389,
                    0.00855,
                    0.01928
                ],
                [
                    0.02123,
                    2.33064,
                    -0.15782
                ],
                [
                    0.00814,
                    -0.17064,
                    2.45567
                ]
            ],
            [
                [
                    1.20967,
                    -0.66197,
                    0.65961
                ],
                [
                    -0.7687,
                    2.85662,
                    0.52276
                ],
                [
                    0.56265,
                    0.7889,
                    2.55911
                ]
            ],
            [
                [
                    1.20966,
                    -0.66197,
                    0.6596
                ],
                [
                    -0.76869,
                    2.8566,
                    0.52275
                ],
                [
                    0.56263,
                    0.78895,
                    2.55911
                ]
            ],
            [
                [
                    0.79277,
                    -0.70702,
                    0.22127
                ],
                [
                    -0.75775,
                    2.67282,
                    0.12149
                ],
                [
                    0.30116,
                    -0.08137,
                    3.14624
                ]
            ],
            [
                [
                    0.79277,
                    -0.70701,
                    0.22127
                ],
                [
                    -0.75776,
                    2.67282,
                    0.12148
                ],
                [
                    0.3012,
                    -0.08143,
                    3.14627
                ]
            ],
            [
                [
                    -1.21729,
                    0.64271,
                    -0.68566
                ],
                [
                    0.65352,
                    -2.42861,
                    0.60423
                ],
                [
                    -0.70622,
                    0.58965,
                    -1.86538
                ]
            ],
            [
                [
                    -1.21728,
                    0.64271,
                    -0.68565
                ],
                [
                    0.65352,
                    -2.4286,
                    0.60424
                ],
                [
                    -0.7062,
                    0.5896,
                    -1.86539
                ]
            ],
            [
                [
                    -1.42915,
                    -0.02349,
                    -0.12485
                ],
                [
                    0.0171,
                    -1.78893,
                    -0.61916
                ],
                [
                    -0.1164,
                    -0.58549,
                    -2.38566
                ]
            ],
            [
                [
                    -1.42917,
                    -0.02348,
                    -0.12486
                ],
                [
                    0.01709,
                    -1.78895,
                    -0.61915
                ],
                [
                    -0.11638,
                    -0.58543,
                    -2.38562
                ]
            ],
            [
                [
                    -1.48694,
                    0.43062,
                    0.03428
                ],
                [
                    0.44846,
                    -2.68428,
                    -0.21557
                ],
                [
                    0.02737,
                    -0.23074,
                    -1.41746
                ]
            ],
            [
                [
                    -1.48698,
                    0.43068,
                    0.03427
                ],
                [
                    0.44847,
                    -2.68425,
                    -0.21556
                ],
                [
                    0.02739,
                    -0.23075,
                    -1.4175
                ]
            ],
            [
                [
                    -1.46792,
                    0.06167,
                    -0.22759
                ],
                [
                    0.11578,
                    -1.15341,
                    0.0584
                ],
                [
                    -0.1755,
                    0.08508,
                    -2.86359
                ]
            ],
            [
                [
                    -1.46793,
                    0.06168,
                    -0.22759
                ],
                [
                    0.11575,
                    -1.15342,
                    0.0584
                ],
                [
                    -0.17551,
                    0.08504,
                    -2.86361
                ]
            ],
            [
                [
                    -1.3547,
                    0.2384,
                    0.10203
                ],
                [
                    0.22463,
                    -2.12221,
                    -0.43317
                ],
                [
                    0.0973,
                    -0.50891,
                    -2.03962
                ]
            ],
            [
                [
                    -1.35466,
                    0.23835,
                    0.10199
                ],
                [
                    0.22464,
                    -2.1222,
                    -0.43317
                ],
                [
                    0.09729,
                    -0.50893,
                    -2.0396
                ]
            ]
        ]
    },
    "band_gap": 2.5391000000000004,
    "is_direct": false,
    "formula": "Cd2B2O5"
}