{
    "mp_id": "mp-756063",
    "nelements": 3,
    "nsites": 20,
    "elements": [
        "Nb",
        "O",
        "Rb"
    ],
    "structure": {
        "@module": "pymatgen.core.structure",
        "@class": "Structure",
        "charge": null,
        "lattice": {
            "matrix": [
                [
                    4.87402548,
                    -4.31552857,
                    -0.00140194
                ],
                [
                    4.87402548,
                    4.31552857,
                    -0.00140194
                ],
                [
                    -0.7890394,
                    0.0,
                    8.07513707
                ]
            ],
            "a": 6.5099856515672325,
            "b": 6.5099856515672325,
            "c": 8.113594879832277,
            "alpha": 94.18773376238462,
            "beta": 94.18773376238462,
            "gamma": 83.04422924672593,
            "volume": 339.69525749508597
        },
        "sites": [
            {
                "species": [
                    {
                        "element": "Rb",
                        "occu": 1
                    }
                ],
                "abc": [
                    0.33922845,
                    0.33922845,
                    0.76800651
                ],
                "xyz": [
                    2.700828821835318,
                    0.0,
                    6.20080668303594
                ],
                "label": "Rb",
                "properties": {}
            },
            {
                "species": [
                    {
                        "element": "Rb",
                        "occu": 1
                    }
                ],
                "abc": [
                    0.76010204,
                    0.23989796,
                    0.5
                ],
                "xyz": [
                    4.47950578,
                    -2.244955569470566,
                    4.036166595
                ],
                "label": "Rb",
                "properties": {}
            },
            {
                "species": [
                    {
                        "element": "Rb",
                        "occu": 1
                    }
                ],
                "abc": [
                    0.23989796,
                    0.76010204,
                    0.5
                ],
                "xyz": [
                    4.47950578,
                    2.244955569470566,
                    4.036166595
                ],
                "label": "Rb",
                "properties": {}
            },
            {
                "species": [
                    {
                        "element": "Rb",
                        "occu": 1
                    }
                ],
                "abc": [
                    0.66077155,
                    0.66077155,
                    0.23199349
                ],
                "xyz": [
                    6.258182738164682,
                    0.0,
                    1.8715265069640603
                ],
                "label": "Rb",
                "properties": {}
            },
            {
                "species": [
                    {
                        "element": "Nb",
                        "occu": 1
                    }
                ],
                "abc": [
                    0.26027393,
                    0.26027393,
                    0.19941649
                ],
                "xyz": [
                    2.3798160655797664,
                    0.0,
                    1.609585713901436
                ],
                "label": "Nb",
                "properties": {}
            },
            {
                "species": [
                    {
                        "element": "Nb",
                        "occu": 1
                    }
                ],
                "abc": [
                    0.8110977,
                    0.1889023,
                    0.0
                ],
                "xyz": [
                    4.87402548,
                    -2.6851020248225783,
                    -0.00140194
                ],
                "label": "Nb",
                "properties": {}
            },
            {
                "species": [
                    {
                        "element": "Nb",
                        "occu": 1
                    }
                ],
                "abc": [
                    0.1889023,
                    0.8110977,
                    0.0
                ],
                "xyz": [
                    4.87402548,
                    2.6851020248225783,
                    -0.00140194
                ],
                "label": "Nb",
                "properties": {}
            },
            {
                "species": [
                    {
                        "element": "Nb",
                        "occu": 1
                    }
                ],
                "abc": [
                    0.73972607,
                    0.73972607,
                    0.80058351
                ],
                "xyz": [
                    6.579195494420234,
                    0.0,
                    6.462747476098565
                ],
                "label": "Nb",
                "properties": {}
            },
            {
                "species": [
                    {
                        "element": "O",
                        "occu": 1
                    }
                ],
                "abc": [
                    0.12330306,
                    0.12330306,
                    0.94833631
                ],
                "xyz": [
                    0.4536897993633239,
                    0.0,
                    7.657599964724139
                ],
                "label": "O",
                "properties": {}
            },
            {
                "species": [
                    {
                        "element": "O",
                        "occu": 1
                    }
                ],
                "abc": [
                    0.3334663,
                    0.3334663,
                    0.4173634
                ],
                "xyz": [
                    2.921330319124688,
                    0.0,
                    3.369331663511994
                ],
                "label": "O",
                "properties": {}
            },
            {
                "species": [
                    {
                        "element": "O",
                        "occu": 1
                    }
                ],
                "abc": [
                    0.71059536,
                    0.04813207,
                    0.78293482
                ],
                "xyz": [
                    3.0802904055830083,
                    -2.858879254571195,
                    6.321242298042564
                ],
                "label": "O",
                "properties": {}
            },
            {
                "species": [
                    {
                        "element": "O",
                        "occu": 1
                    }
                ],
                "abc": [
                    0.04813207,
                    0.71059536,
                    0.78293482
                ],
                "xyz": [
                    3.0802904055830083,
                    2.858879254571195,
                    6.321242298042564
                ],
                "label": "O",
                "properties": {}
            },
            {
                "species": [
                    {
                        "element": "O",
                        "occu": 1
                    }
                ],
                "abc": [
                    0.22739482,
                    0.54695133,
                    0.10462523
                ],
                "xyz": [
                    3.69162943673584,
                    1.3790552486344902,
                    0.8437774863887451
                ],
                "label": "O",
                "properties": {}
            },
            {
                "species": [
                    {
                        "element": "O",
                        "occu": 1
                    }
                ],
                "abc": [
                    0.54695133,
                    0.22739482,
                    0.10462523
                ],
                "xyz": [
                    3.69162943673584,
                    -1.3790552486344902,
                    0.8437774863887451
                ],
                "label": "O",
                "properties": {}
            },
            {
                "species": [
                    {
                        "element": "O",
                        "occu": 1
                    }
                ],
                "abc": [
                    0.77260518,
                    0.45304867,
                    0.89537477
                ],
                "xyz": [
                    5.26738212326416,
                    -1.3790552486344905,
                    7.228555703611255
                ],
                "label": "O",
                "properties": {}
            },
            {
                "species": [
                    {
                        "element": "O",
                        "occu": 1
                    }
                ],
                "abc": [
                    0.45304867,
                    0.77260518,
                    0.89537477
                ],
                "xyz": [
                    5.26738212326416,
                    1.3790552486344905,
                    7.228555703611255
                ],
                "label": "O",
                "properties": {}
            },
            {
                "species": [
                    {
                        "element": "O",
                        "occu": 1
                    }
                ],
                "abc": [
                    0.28940464,
                    0.95186793,
                    0.21706518
                ],
                "xyz": [
                    5.878721154416993,
                    2.858879254571195,
                    1.7510908919574366
                ],
                "label": "O",
                "properties": {}
            },
            {
                "species": [
                    {
                        "element": "O",
                        "occu": 1
                    }
                ],
                "abc": [
                    0.95186793,
                    0.28940464,
                    0.21706518
                ],
                "xyz": [
                    5.878721154416993,
                    -2.858879254571195,
                    1.7510908919574366
                ],
                "label": "O",
                "properties": {}
            },
            {
                "species": [
                    {
                        "element": "O",
                        "occu": 1
                    }
                ],
                "abc": [
                    0.6665337,
                    0.6665337,
                    0.5826366
                ],
                "xyz": [
                    6.037681240875312,
                    0.0,
                    4.703001526488006
                ],
                "label": "O",
                "properties": {}
            },
            {
                "species": [
                    {
                        "element": "O",
                        "occu": 1
                    }
                ],
                "abc": [
                    0.87669694,
                    0.87669694,
                    0.05166369
                ],
                "xyz": [
                    8.505321760636676,
                    0.0,
                    0.41473322527586115
                ],
                "label": "O",
                "properties": {}
            }
        ]
    },
    "spacegroup": {
        "source": "spglib",
        "symbol": "C2/m",
        "number": 12,
        "point_group": "2/m",
        "crystal_system": "monoclinic",
        "hall": "-C 2y"
    },
    "dielectric": {
        "epsilon_ionic": [
            [
                19.56813963,
                -0.0,
                2.34960568
            ],
            [
                -0.0,
                15.74875647,
                -1e-08
            ],
            [
                2.34960568,
                -1e-08,
                5.82175604
            ]
        ],
        "epsilon_ionic_avg": 13.712884046666664,
        "epsilon_ionic_eig": [
            19.958652970971826,
            5.431242699028167,
            15.74875647
        ],
        "epsilon_electronic": [
            [
                4.27578117,
                0.0,
                0.08083235
            ],
            [
                0.0,
                4.34896538,
                0.0
            ],
            [
                0.08083652,
                0.0,
                3.44668122
            ]
        ],
        "epsilon_electronic_avg": 4.023809256666667,
        "epsilon_electronic_eig": [
            4.28358873032987,
            3.4388736596701297,
            4.34896538
        ]
    },
    "phonon": {
        "lowest_freq": -0.08090888454011207,
        "frequency": [
            -0.08090888454011207,
            -0.06874063738924303,
            -0.038798618888285896,
            1.420204090531473,
            1.6572395521065593,
            1.9607738712165048,
            2.1706873548068146,
            2.3186844533137254,
            2.660031059966569,
            2.6996422680552143,
            2.730197865043387,
            3.0396611497485093,
            3.052888986901981,
            3.1986572828134743,
            3.268911784883583,
            3.5980460023517518,
            3.9697689727144434,
            4.162836449145087,
            4.612346477672234,
            4.7423534444576605,
            5.175796294850504,
            5.474041402454364,
            5.6258837582115735,
            6.090374152293619,
            6.307027794964843,
            6.316998269791027,
            6.382734781006166,
            6.503706315366752,
            7.0300336634289025,
            7.257748120270657,
            7.933048912240448,
            8.148119474959358,
            8.520106720222719,
            8.81940150639724,
            8.848918236252276,
            8.855780330225484,
            8.888824817202625,
            9.373493050817503,
            9.949223709972848,
            10.300290140409821,
            11.113339925136218,
            11.70193236878649,
            12.44415041133814,
            12.821057344645446,
            14.204386856575955,
            14.427789572713873,
            14.822124123381066,
            15.52090877732045,
            15.551476592049207,
            15.77169265438233,
            16.357348900194122,
            16.688378906324747,
            16.764895471953544,
            17.064328980437516,
            17.31817385078115,
            21.455353945578704,
            22.81354101900417,
            23.573533479796854,
            24.338000420386052,
            24.572203527532015
        ]
    },
    "born_effective_charge": {
        "avg_abs_trace": 2.9894648333333333,
        "tensors": [
            [
                [
                    1.21721,
                    -0.0,
                    -0.08625
                ],
                [
                    4e-05,
                    1.32062,
                    -6e-05
                ],
                [
                    -0.08297,
                    0.0,
                    1.35518
                ]
            ],
            [
                [
                    1.15101,
                    -1e-05,
                    -0.18911
                ],
                [
                    -0.0,
                    1.13408,
                    -0.0
                ],
                [
                    -0.07513,
                    -0.00026,
                    1.76594
                ]
            ],
            [
                [
                    1.15101,
                    1e-05,
                    -0.18911
                ],
                [
                    0.0,
                    1.1341,
                    -0.0
                ],
                [
                    -0.07513,
                    0.00026,
                    1.76594
                ]
            ],
            [
                [
                    1.21722,
                    -0.0,
                    -0.08624
                ],
                [
                    -4e-05,
                    1.32062,
                    6e-05
                ],
                [
                    -0.08294,
                    0.0,
                    1.35472
                ]
            ],
            [
                [
                    7.57185,
                    -0.0,
                    -0.21707
                ],
                [
                    -0.00039,
                    6.71695,
                    -4e-05
                ],
                [
                    0.40936,
                    0.0,
                    4.17384
                ]
            ],
            [
                [
                    6.63659,
                    6e-05,
                    1.188
                ],
                [
                    -0.0,
                    7.80162,
                    -0.0
                ],
                [
                    0.21147,
                    -0.00026,
                    3.99666
                ]
            ],
            [
                [
                    6.63659,
                    -6e-05,
                    1.188
                ],
                [
                    -0.0,
                    7.80208,
                    -0.0
                ],
                [
                    0.21147,
                    0.00026,
                    3.99666
                ]
            ],
            [
                [
                    7.57189,
                    -0.0,
                    -0.2168
                ],
                [
                    0.00039,
                    6.71695,
                    4e-05
                ],
                [
                    0.40902,
                    0.0,
                    4.1746
                ]
            ],
            [
                [
                    -2.59523,
                    -0.0,
                    -0.35921
                ],
                [
                    -0.00014,
                    -3.40656,
                    0.00021
                ],
                [
                    -0.12116,
                    0.0,
                    -1.27724
                ]
            ],
            [
                [
                    -1.46574,
                    -0.0,
                    -0.80511
                ],
                [
                    7e-05,
                    -1.22429,
                    -1e-05
                ],
                [
                    -0.82927,
                    0.0,
                    -3.48682
                ]
            ],
            [
                [
                    -2.9713,
                    -1.27992,
                    -1.11472
                ],
                [
                    -1.17721,
                    -2.3956,
                    -0.28603
                ],
                [
                    -0.51075,
                    -0.06415,
                    -1.90524
                ]
            ],
            [
                [
                    -2.9713,
                    1.27992,
                    -1.11472
                ],
                [
                    1.17689,
                    -2.39566,
                    0.28587
                ],
                [
                    -0.51075,
                    0.06415,
                    -1.90524
                ]
            ],
            [
                [
                    -3.28652,
                    -2.10143,
                    1.34909
                ],
                [
                    -2.26902,
                    -3.77572,
                    1.60905
                ],
                [
                    0.75494,
                    0.84283,
                    -1.35845
                ]
            ],
            [
                [
                    -3.28652,
                    2.10143,
                    1.34909
                ],
                [
                    2.26903,
                    -3.77568,
                    -1.60892
                ],
                [
                    0.75494,
                    -0.84283,
                    -1.35845
                ]
            ],
            [
                [
                    -3.28655,
                    -2.10147,
                    1.34915
                ],
                [
                    -2.26903,
                    -3.77568,
                    1.60892
                ],
                [
                    0.75493,
                    0.84309,
                    -1.35841
                ]
            ],
            [
                [
                    -3.28655,
                    2.10147,
                    1.34915
                ],
                [
                    2.26902,
                    -3.77572,
                    -1.60905
                ],
                [
                    0.75493,
                    -0.84309,
                    -1.35841
                ]
            ],
            [
                [
                    -2.9713,
                    -1.27988,
                    -1.11477
                ],
                [
                    -1.17689,
                    -2.39566,
                    -0.28587
                ],
                [
                    -0.51124,
                    -0.06456,
                    -1.90545
                ]
            ],
            [
                [
                    -2.9713,
                    1.27988,
                    -1.11477
                ],
                [
                    1.17721,
                    -2.3956,
                    0.28603
                ],
                [
                    -0.51124,
                    0.06456,
                    -1.90545
                ]
            ],
            [
                [
                    -1.46581,
                    -0.0,
                    -0.8053
                ],
                [
                    -7e-05,
                    -1.22429,
                    1e-05
                ],
                [
                    -0.82926,
                    0.0,
                    -3.48718
                ]
            ],
            [
                [
                    -2.59526,
                    -0.0,
                    -0.35929
                ],
                [
                    0.00014,
                    -3.40656,
                    -0.00021
                ],
                [
                    -0.12123,
                    0.0,
                    -1.27722
                ]
            ]
        ]
    },
    "band_gap": 3.1055,
    "is_direct": false,
    "formula": "RbNbO3"
}