{
    "mp_id": "mp-753746",
    "nelements": 2,
    "nsites": 3,
    "elements": [
        "O",
        "Rb"
    ],
    "structure": {
        "@module": "pymatgen.core.structure",
        "@class": "Structure",
        "charge": null,
        "lattice": {
            "matrix": [
                [
                    0.0,
                    3.35044952,
                    3.35044952
                ],
                [
                    3.35044952,
                    0.0,
                    3.35044952
                ],
                [
                    3.35044952,
                    3.35044952,
                    0.0
                ]
            ],
            "a": 4.738251151230426,
            "b": 4.738251151230426,
            "c": 4.738251151230426,
            "alpha": 59.99999999999999,
            "beta": 59.99999999999999,
            "gamma": 59.99999999999999,
            "volume": 75.22102249095312
        },
        "sites": [
            {
                "species": [
                    {
                        "element": "Rb",
                        "occu": 1
                    }
                ],
                "abc": [
                    0.25,
                    0.25,
                    0.25
                ],
                "xyz": [
                    1.67522476,
                    1.67522476,
                    1.67522476
                ],
                "label": "Rb",
                "properties": {}
            },
            {
                "species": [
                    {
                        "element": "Rb",
                        "occu": 1
                    }
                ],
                "abc": [
                    0.75,
                    0.75,
                    0.75
                ],
                "xyz": [
                    5.0256742800000005,
                    5.0256742800000005,
                    5.0256742800000005
                ],
                "label": "Rb",
                "properties": {}
            },
            {
                "species": [
                    {
                        "element": "O",
                        "occu": 1
                    }
                ],
                "abc": [
                    0.0,
                    0.0,
                    0.0
                ],
                "xyz": [
                    0.0,
                    0.0,
                    0.0
                ],
                "label": "O",
                "properties": {}
            }
        ]
    },
    "spacegroup": {
        "source": "spglib",
        "symbol": "Fm-3m",
        "number": 225,
        "point_group": "m-3m",
        "crystal_system": "cubic",
        "hall": "-F 4 2 3"
    },
    "dielectric": {
        "epsilon_ionic": [
            [
                6.54321455,
                -0.0,
                0.0
            ],
            [
                -0.0,
                6.54349489,
                0.0
            ],
            [
                0.0,
                0.0,
                6.54107908
            ]
        ],
        "epsilon_ionic_avg": 6.542596173333333,
        "epsilon_ionic_eig": [
            6.54321455,
            6.54349489,
            6.54107908
        ],
        "epsilon_electronic": [
            [
                3.56945814,
                -0.0,
                0.0
            ],
            [
                0.0,
                3.56945814,
                0.0
            ],
            [
                -0.0,
                0.0,
                3.56945814
            ]
        ],
        "epsilon_electronic_avg": 3.56945814,
        "epsilon_electronic_eig": [
            3.56945814,
            3.56945814,
            3.56945814
        ]
    },
    "phonon": {
        "lowest_freq": -0.03426098183486138,
        "frequency": [
            -0.03426098183486138,
            -0.03426098183486138,
            -0.03426098183486138,
            3.208060460940675,
            3.208060460940675,
            3.208060460940675,
            5.158810110770771,
            5.158810110770771,
            5.158810110770771
        ]
    },
    "born_effective_charge": {
        "avg_abs_trace": 1.395991111111111,
        "tensors": [
            [
                [
                    1.04704,
                    0.0,
                    0.0
                ],
                [
                    -0.0,
                    1.04707,
                    -0.0
                ],
                [
                    0.0,
                    0.0,
                    1.04687
                ]
            ],
            [
                [
                    1.04704,
                    -0.0,
                    -0.0
                ],
                [
                    0.0,
                    1.04707,
                    0.0
                ],
                [
                    0.0,
                    0.0,
                    1.04687
                ]
            ],
            [
                [
                    -2.09409,
                    0.0,
                    -0.0
                ],
                [
                    0.0,
                    -2.09413,
                    0.0
                ],
                [
                    0.0,
                    0.0,
                    -2.09374
                ]
            ]
        ]
    },
    "band_gap": 1.4727999999999999,
    "is_direct": false,
    "formula": "Rb2O"
}