{
    "mp_id": "mp-769349",
    "nelements": 3,
    "nsites": 23,
    "elements": [
        "Ba",
        "O",
        "Ta"
    ],
    "structure": {
        "@module": "pymatgen.core.structure",
        "@class": "Structure",
        "charge": null,
        "lattice": {
            "matrix": [
                [
                    3.89862621,
                    0.0,
                    0.0
                ],
                [
                    0.0,
                    5.16593893,
                    7.5922465
                ],
                [
                    0.0,
                    -5.16593893,
                    7.5922465
                ]
            ],
            "a": 3.89862621,
            "b": 9.183089455365868,
            "c": 9.183089455365868,
            "alpha": 68.46454124762403,
            "beta": 90.0,
            "gamma": 90.0,
            "volume": 305.8166746721252
        },
        "sites": [
            {
                "species": [
                    {
                        "element": "Ba",
                        "occu": 1
                    }
                ],
                "abc": [
                    0.5,
                    0.39920421,
                    0.39920421
                ],
                "xyz": [
                    1.949313105,
                    0.0,
                    6.06171353231553
                ],
                "label": "Ba",
                "properties": {}
            },
            {
                "species": [
                    {
                        "element": "Ta",
                        "occu": 1
                    }
                ],
                "abc": [
                    0.0,
                    0.99181923,
                    0.99181923
                ],
                "xyz": [
                    0.0,
                    0.0,
                    15.06027215520039
                ],
                "label": "Ta",
                "properties": {}
            },
            {
                "species": [
                    {
                        "element": "Ta",
                        "occu": 1
                    }
                ],
                "abc": [
                    0.0,
                    0.00055059,
                    0.62967308
                ],
                "xyz": [
                    0.0,
                    -3.2500083628295355,
                    4.784813452774655
                ],
                "label": "Ta",
                "properties": {}
            },
            {
                "species": [
                    {
                        "element": "Ta",
                        "occu": 1
                    }
                ],
                "abc": [
                    0.0,
                    0.20547629,
                    0.20547629
                ],
                "xyz": [
                    0.0,
                    0.0,
                    3.12005328717097
                ],
                "label": "Ta",
                "properties": {}
            },
            {
                "species": [
                    {
                        "element": "Ta",
                        "occu": 1
                    }
                ],
                "abc": [
                    0.0,
                    0.37979575,
                    0.751914
                ],
                "xyz": [
                    0.0,
                    -1.9223401542384726,
                    8.592219388453374
                ],
                "label": "Ta",
                "properties": {}
            },
            {
                "species": [
                    {
                        "element": "Ta",
                        "occu": 1
                    }
                ],
                "abc": [
                    0.0,
                    0.62967308,
                    0.00055059
                ],
                "xyz": [
                    0.0,
                    3.2500083628295355,
                    4.784813452774655
                ],
                "label": "Ta",
                "properties": {}
            },
            {
                "species": [
                    {
                        "element": "Ta",
                        "occu": 1
                    }
                ],
                "abc": [
                    0.0,
                    0.751914,
                    0.37979575
                ],
                "xyz": [
                    0.0,
                    1.9223401542384726,
                    8.592219388453374
                ],
                "label": "Ta",
                "properties": {}
            },
            {
                "species": [
                    {
                        "element": "O",
                        "occu": 1
                    }
                ],
                "abc": [
                    0.0,
                    0.17867462,
                    0.43002714
                ],
                "xyz": [
                    0.0,
                    -1.2984717682216036,
                    4.62141380690384
                ],
                "label": "O",
                "properties": {}
            },
            {
                "species": [
                    {
                        "element": "O",
                        "occu": 1
                    }
                ],
                "abc": [
                    0.0,
                    0.15044087,
                    0.75198978
                ],
                "xyz": [
                    0.0,
                    -3.1075649324680668,
                    6.851475943955226
                ],
                "label": "O",
                "properties": {}
            },
            {
                "species": [
                    {
                        "element": "O",
                        "occu": 1
                    }
                ],
                "abc": [
                    0.0,
                    0.22653574,
                    0.98155147
                ],
                "xyz": [
                    0.0,
                    -3.900365152369369,
                    9.172095891817264
                ],
                "label": "O",
                "properties": {}
            },
            {
                "species": [
                    {
                        "element": "O",
                        "occu": 1
                    }
                ],
                "abc": [
                    0.0,
                    0.43002714,
                    0.17867462
                ],
                "xyz": [
                    0.0,
                    1.2984717682216036,
                    4.62141380690384
                ],
                "label": "O",
                "properties": {}
            },
            {
                "species": [
                    {
                        "element": "O",
                        "occu": 1
                    }
                ],
                "abc": [
                    0.0,
                    0.52054509,
                    0.52054509
                ],
                "xyz": [
                    0.0,
                    0.0,
                    7.90421327528937
                ],
                "label": "O",
                "properties": {}
            },
            {
                "species": [
                    {
                        "element": "O",
                        "occu": 1
                    }
                ],
                "abc": [
                    0.0,
                    0.53889837,
                    0.83787175
                ],
                "xyz": [
                    0.0,
                    -1.544478222775684,
                    10.45277812487458
                ],
                "label": "O",
                "properties": {}
            },
            {
                "species": [
                    {
                        "element": "O",
                        "occu": 1
                    }
                ],
                "abc": [
                    0.0,
                    0.75198978,
                    0.15044087
                ],
                "xyz": [
                    0.0,
                    3.1075649324680668,
                    6.851475943955226
                ],
                "label": "O",
                "properties": {}
            },
            {
                "species": [
                    {
                        "element": "O",
                        "occu": 1
                    }
                ],
                "abc": [
                    0.0,
                    0.83787175,
                    0.53889837
                ],
                "xyz": [
                    0.0,
                    1.544478222775684,
                    10.45277812487458
                ],
                "label": "O",
                "properties": {}
            },
            {
                "species": [
                    {
                        "element": "O",
                        "occu": 1
                    }
                ],
                "abc": [
                    0.0,
                    0.85548029,
                    0.85548029
                ],
                "xyz": [
                    0.0,
                    0.0,
                    12.99003447514297
                ],
                "label": "O",
                "properties": {}
            },
            {
                "species": [
                    {
                        "element": "O",
                        "occu": 1
                    }
                ],
                "abc": [
                    0.0,
                    0.98155147,
                    0.22653574
                ],
                "xyz": [
                    0.0,
                    3.900365152369369,
                    9.172095891817264
                ],
                "label": "O",
                "properties": {}
            },
            {
                "species": [
                    {
                        "element": "O",
                        "occu": 1
                    }
                ],
                "abc": [
                    0.5,
                    0.37160826,
                    0.72545505
                ],
                "xyz": [
                    1.949313105,
                    -1.8279509077165346,
                    8.329175075625916
                ],
                "label": "O",
                "properties": {}
            },
            {
                "species": [
                    {
                        "element": "O",
                        "occu": 1
                    }
                ],
                "abc": [
                    0.5,
                    0.01003761,
                    0.62580561
                ],
                "xyz": [
                    1.949313105,
                    -3.1810198830482403,
                    4.8274784615937305
                ],
                "label": "O",
                "properties": {}
            },
            {
                "species": [
                    {
                        "element": "O",
                        "occu": 1
                    }
                ],
                "abc": [
                    0.5,
                    0.99425401,
                    0.99425401
                ],
                "xyz": [
                    1.949313105,
                    0.0,
                    15.09724305506693
                ],
                "label": "O",
                "properties": {}
            },
            {
                "species": [
                    {
                        "element": "O",
                        "occu": 1
                    }
                ],
                "abc": [
                    0.5,
                    0.21238918,
                    0.21238918
                ],
                "xyz": [
                    1.949313105,
                    0.0,
                    3.22502201698574
                ],
                "label": "O",
                "properties": {}
            },
            {
                "species": [
                    {
                        "element": "O",
                        "occu": 1
                    }
                ],
                "abc": [
                    0.5,
                    0.62580561,
                    0.01003761
                ],
                "xyz": [
                    1.949313105,
                    3.1810198830482403,
                    4.8274784615937305
                ],
                "label": "O",
                "properties": {}
            },
            {
                "species": [
                    {
                        "element": "O",
                        "occu": 1
                    }
                ],
                "abc": [
                    0.5,
                    0.72545505,
                    0.37160826
                ],
                "xyz": [
                    1.949313105,
                    1.8279509077165346,
                    8.329175075625916
                ],
                "label": "O",
                "properties": {}
            }
        ]
    },
    "spacegroup": {
        "source": "spglib",
        "symbol": "Amm2",
        "number": 38,
        "point_group": "mm2",
        "crystal_system": "orthorhombic",
        "hall": "A 2 -2"
    },
    "dielectric": {
        "epsilon_ionic": [
            [
                49.13970579,
                0.0,
                -8.226e-05
            ],
            [
                0.0,
                23.26284506,
                -6.693e-05
            ],
            [
                -8.226e-05,
                -6.693e-05,
                22.36812881
            ]
        ],
        "epsilon_ionic_avg": 31.590226553333338,
        "epsilon_ionic_eig": [
            49.13970579025277,
            22.368128804740483,
            23.262845065006758
        ],
        "epsilon_electronic": [
            [
                5.89193799,
                0.0,
                0.0
            ],
            [
                0.0,
                4.6251015,
                0.0
            ],
            [
                0.0,
                0.0,
                4.99800378
            ]
        ],
        "epsilon_electronic_avg": 5.17168109,
        "epsilon_electronic_eig": [
            5.89193799,
            4.6251015,
            4.99800378
        ]
    },
    "phonon": {
        "lowest_freq": -0.022406735597351943,
        "frequency": [
            -0.022406735597351943,
            -0.017055623610436443,
            -0.013601485206157428,
            1.516558033648981,
            1.6260149913510766,
            1.7378271941570187,
            1.9010864218057824,
            2.238439223672332,
            2.3866831473098307,
            2.7513725959133786,
            2.8486128869127105,
            3.3211877053613454,
            3.4463094835169636,
            3.560593258369475,
            3.9668985504491747,
            4.879570836822869,
            5.0395063102972895,
            5.3227262147206265,
            5.409777243738365,
            6.0041622426305805,
            6.13068157168642,
            6.188804628267128,
            6.338865365202211,
            6.558479326068562,
            6.7863013712712705,
            6.981808134543573,
            7.233275258594174,
            7.508203593214667,
            7.61189627516367,
            7.956867069136961,
            8.032079675512676,
            8.153991934316068,
            8.304036986719531,
            8.745801169101192,
            9.04309464290243,
            9.112416147019951,
            9.284103597617216,
            9.401161620218085,
            9.405230499961696,
            9.56468633499257,
            9.792407318874707,
            9.857909639274219,
            10.15923565953472,
            10.458423328734805,
            10.559941009059417,
            10.593922043802145,
            11.102484935776758,
            11.587010314712089,
            12.168558834919668,
            13.747385740183804,
            13.78874464829266,
            14.957880496744693,
            14.992565638419476,
            16.0214591255104,
            16.275633849431085,
            16.74832847274524,
            16.840293996484704,
            17.065722481576177,
            17.132332166611153,
            17.626915713066204,
            17.914293805558408,
            18.69971124033057,
            18.920655833491384,
            20.203427156822105,
            20.424998387411975,
            24.092147558323507,
            25.49780873581007,
            25.791230574994746,
            25.95784883023058
        ]
    },
    "born_effective_charge": {
        "avg_abs_trace": 4.17933579710145,
        "tensors": [
            [
                [
                    2.59379,
                    0.0,
                    -1e-05
                ],
                [
                    0.0,
                    2.40643,
                    -0.0
                ],
                [
                    0.0,
                    -0.0,
                    3.52541
                ]
            ],
            [
                [
                    9.53962,
                    0.0,
                    0.00016
                ],
                [
                    0.0,
                    5.34017,
                    1e-05
                ],
                [
                    0.0,
                    -0.0,
                    5.74417
                ]
            ],
            [
                [
                    9.17118,
                    0.00011,
                    0.0001
                ],
                [
                    0.0,
                    6.79574,
                    -1.26453
                ],
                [
                    0.0,
                    -0.92651,
                    7.93683
                ]
            ],
            [
                [
                    8.80515,
                    0.0,
                    0.00021
                ],
                [
                    0.0,
                    6.11659,
                    -3e-05
                ],
                [
                    0.0,
                    -0.0,
                    7.49018
                ]
            ],
            [
                [
                    8.44057,
                    0.00013,
                    -0.00043
                ],
                [
                    0.0,
                    7.26674,
                    -0.351
                ],
                [
                    0.0,
                    0.752,
                    6.70183
                ]
            ],
            [
                [
                    9.17118,
                    -0.00011,
                    0.0001
                ],
                [
                    0.0,
                    6.79558,
                    1.26443
                ],
                [
                    0.0,
                    0.92651,
                    7.93683
                ]
            ],
            [
                [
                    8.44057,
                    -0.00013,
                    -0.00043
                ],
                [
                    0.0,
                    7.26671,
                    0.35098
                ],
                [
                    0.0,
                    -0.752,
                    6.70183
                ]
            ],
            [
                [
                    -1.8125,
                    5e-05,
                    5e-05
                ],
                [
                    0.0,
                    -4.40821,
                    1.24763
                ],
                [
                    0.0,
                    1.137,
                    -2.55896
                ]
            ],
            [
                [
                    -1.44487,
                    0.00012,
                    -2e-05
                ],
                [
                    0.0,
                    -2.96621,
                    -0.05326
                ],
                [
                    0.0,
                    -0.58996,
                    -4.41321
                ]
            ],
            [
                [
                    -1.25996,
                    4e-05,
                    -3e-05
                ],
                [
                    0.0,
                    -3.76087,
                    0.83078
                ],
                [
                    0.0,
                    0.47553,
                    -3.30766
                ]
            ],
            [
                [
                    -1.8125,
                    -5e-05,
                    5e-05
                ],
                [
                    0.0,
                    -4.40819,
                    -1.24755
                ],
                [
                    0.0,
                    -1.137,
                    -2.55896
                ]
            ],
            [
                [
                    -1.93802,
                    0.0,
                    -0.0001
                ],
                [
                    0.0,
                    -5.10734,
                    -7e-05
                ],
                [
                    0.0,
                    -0.0,
                    -1.93534
                ]
            ],
            [
                [
                    -1.12887,
                    3e-05,
                    -2e-05
                ],
                [
                    0.0,
                    -1.09109,
                    -0.20006
                ],
                [
                    0.0,
                    0.03275,
                    -6.09954
                ]
            ],
            [
                [
                    -1.44487,
                    -0.00012,
                    -2e-05
                ],
                [
                    0.0,
                    -2.96595,
                    0.05333
                ],
                [
                    0.0,
                    0.58996,
                    -4.41321
                ]
            ],
            [
                [
                    -1.12887,
                    -3e-05,
                    -2e-05
                ],
                [
                    0.0,
                    -1.09122,
                    0.20009
                ],
                [
                    0.0,
                    -0.03275,
                    -6.09954
                ]
            ],
            [
                [
                    -1.31357,
                    0.0,
                    -2e-05
                ],
                [
                    0.0,
                    -4.5747,
                    3e-05
                ],
                [
                    0.0,
                    -0.0,
                    -3.25153
                ]
            ],
            [
                [
                    -1.25996,
                    -4e-05,
                    -3e-05
                ],
                [
                    0.0,
                    -3.76074,
                    -0.83071
                ],
                [
                    0.0,
                    -0.47553,
                    -3.30766
                ]
            ],
            [
                [
                    -6.56162,
                    -0.00029,
                    0.00071
                ],
                [
                    0.0,
                    -1.49318,
                    0.22635
                ],
                [
                    0.0,
                    0.06209,
                    -1.3344
                ]
            ],
            [
                [
                    -7.07732,
                    -0.00029,
                    -0.00017
                ],
                [
                    0.0,
                    -1.31028,
                    0.14105
                ],
                [
                    0.0,
                    0.09378,
                    -1.36971
                ]
            ],
            [
                [
                    -7.60903,
                    0.0,
                    -0.00019
                ],
                [
                    0.0,
                    -1.0904,
                    1e-05
                ],
                [
                    0.0,
                    -0.0,
                    -1.16322
                ]
            ],
            [
                [
                    -6.73115,
                    0.0,
                    -0.00043
                ],
                [
                    0.0,
                    -1.15606,
                    -7e-05
                ],
                [
                    0.0,
                    -0.0,
                    -1.52003
                ]
            ],
            [
                [
                    -7.07732,
                    0.00029,
                    -0.00017
                ],
                [
                    0.0,
                    -1.31029,
                    -0.14108
                ],
                [
                    0.0,
                    -0.09378,
                    -1.36971
                ]
            ],
            [
                [
                    -6.56162,
                    0.00029,
                    0.00071
                ],
                [
                    0.0,
                    -1.49321,
                    -0.22631
                ],
                [
                    0.0,
                    -0.06209,
                    -1.3344
                ]
            ]
        ]
    },
    "band_gap": 2.6451000000000002,
    "is_direct": false,
    "formula": "BaTa6O16"
}