{
    "mp_id": "mp-755135",
    "nelements": 3,
    "nsites": 19,
    "elements": [
        "La",
        "O",
        "W"
    ],
    "structure": {
        "@module": "pymatgen.core.structure",
        "@class": "Structure",
        "charge": null,
        "lattice": {
            "matrix": [
                [
                    5.11024431,
                    2.95040054,
                    3.28636068
                ],
                [
                    -5.11024418,
                    2.95040078,
                    3.28636068
                ],
                [
                    -1.4e-07,
                    -5.90080232,
                    3.28636068
                ]
            ],
            "a": 6.754230287262178,
            "b": 6.754230293741733,
            "c": 6.754230862116535,
            "alpha": 98.33057458645133,
            "beta": 98.33057461312855,
            "gamma": 98.33057674362884,
            "volume": 297.2960777564431
        },
        "sites": [
            {
                "species": [
                    {
                        "element": "La",
                        "occu": 1
                    }
                ],
                "abc": [
                    0.30394883,
                    0.14309948,
                    0.60800237
                ],
                "xyz": [
                    0.821979409087299,
                    -2.268730185887536,
                    3.4672770701592626
                ],
                "label": "La",
                "properties": {}
            },
            {
                "species": [
                    {
                        "element": "La",
                        "occu": 1
                    }
                ],
                "abc": [
                    0.85690052,
                    0.39199763,
                    0.69605117
                ],
                "xyz": [
                    2.375767301837584,
                    -0.42251048853028284,
                    6.391804969840738
                ],
                "label": "La",
                "properties": {}
            },
            {
                "species": [
                    {
                        "element": "La",
                        "occu": 1
                    }
                ],
                "abc": [
                    0.39199763,
                    0.69605117,
                    0.85690052
                ],
                "xyz": [
                    -1.5537879021997785,
                    -1.8462206423065748,
                    6.391804969840738
                ],
                "label": "La",
                "properties": {}
            },
            {
                "species": [
                    {
                        "element": "La",
                        "occu": 1
                    }
                ],
                "abc": [
                    0.60800237,
                    0.30394883,
                    0.14309948
                ],
                "xyz": [
                    1.5537878921997783,
                    1.8462196423065733,
                    3.4672770701592626
                ],
                "label": "La",
                "properties": {}
            },
            {
                "species": [
                    {
                        "element": "La",
                        "occu": 1
                    }
                ],
                "abc": [
                    0.14309948,
                    0.60800237,
                    0.30394883
                ],
                "xyz": [
                    -2.375767311837584,
                    0.42250948853028203,
                    3.4672770701592626
                ],
                "label": "La",
                "properties": {}
            },
            {
                "species": [
                    {
                        "element": "La",
                        "occu": 1
                    }
                ],
                "abc": [
                    0.69605117,
                    0.85690052,
                    0.39199763
                ],
                "xyz": [
                    -0.8219794190872988,
                    2.2687291858875356,
                    6.391804969840738
                ],
                "label": "La",
                "properties": {}
            },
            {
                "species": [
                    {
                        "element": "W",
                        "occu": 1
                    }
                ],
                "abc": [
                    0.0,
                    0.0,
                    0.0
                ],
                "xyz": [
                    0.0,
                    0.0,
                    0.0
                ],
                "label": "W",
                "properties": {}
            },
            {
                "species": [
                    {
                        "element": "O",
                        "occu": 1
                    }
                ],
                "abc": [
                    0.2840763,
                    0.06675964,
                    0.96982308
                ],
                "xyz": [
                    1.1105410981367265,
                    -4.687627717603824,
                    4.340161875015333
                ],
                "label": "O",
                "properties": {}
            },
            {
                "species": [
                    {
                        "element": "O",
                        "occu": 1
                    }
                ],
                "abc": [
                    0.93324036,
                    0.03017692,
                    0.7159237
                ],
                "xyz": [
                    4.614874709522708,
                    -1.3820573595031926,
                    5.518920164984666
                ],
                "label": "O",
                "properties": {}
            },
            {
                "species": [
                    {
                        "element": "O",
                        "occu": 1
                    }
                ],
                "abc": [
                    0.55736116,
                    0.40527612,
                    0.8229949
                ],
                "xyz": [
                    0.7771916477627318,
                    -2.0161645672657684,
                    5.868231385294683
                ],
                "label": "O",
                "properties": {}
            },
            {
                "species": [
                    {
                        "element": "O",
                        "occu": 1
                    }
                ],
                "abc": [
                    0.59472388,
                    0.1770051,
                    0.44263884
                ],
                "xyz": [
                    2.134644979716367,
                    -0.3350146521872355,
                    3.9908506547053175
                ],
                "label": "O",
                "properties": {}
            },
            {
                "species": [
                    {
                        "element": "O",
                        "occu": 1
                    }
                ],
                "abc": [
                    0.03017692,
                    0.7159237,
                    0.93324036
                ],
                "xyz": [
                    -3.504333618179391,
                    -3.3055710374416125,
                    5.518920164984666
                ],
                "label": "O",
                "properties": {}
            },
            {
                "species": [
                    {
                        "element": "O",
                        "occu": 1
                    }
                ],
                "abc": [
                    0.1770051,
                    0.44263884,
                    0.59472388
                ],
                "xyz": [
                    -1.3574533340973132,
                    -1.6811501294463524,
                    3.9908506547053175
                ],
                "label": "O",
                "properties": {}
            },
            {
                "species": [
                    {
                        "element": "O",
                        "occu": 1
                    }
                ],
                "abc": [
                    0.8229949,
                    0.55736116,
                    0.40527612
                ],
                "xyz": [
                    1.357453324097313,
                    1.6811491294463519,
                    5.868231385294682
                ],
                "label": "O",
                "properties": {}
            },
            {
                "species": [
                    {
                        "element": "O",
                        "occu": 1
                    }
                ],
                "abc": [
                    0.96982308,
                    0.2840763,
                    0.06675964
                ],
                "xyz": [
                    3.5043336081793903,
                    3.305570037441612,
                    4.340161875015333
                ],
                "label": "O",
                "properties": {}
            },
            {
                "species": [
                    {
                        "element": "O",
                        "occu": 1
                    }
                ],
                "abc": [
                    0.40527612,
                    0.8229949,
                    0.55736116
                ],
                "xyz": [
                    -2.1346449897163664,
                    0.3350136521872349,
                    5.868231385294683
                ],
                "label": "O",
                "properties": {}
            },
            {
                "species": [
                    {
                        "element": "O",
                        "occu": 1
                    }
                ],
                "abc": [
                    0.44263884,
                    0.59472388,
                    0.1770051
                ],
                "xyz": [
                    -0.7771916577627317,
                    2.0161635672657674,
                    3.9908506547053175
                ],
                "label": "O",
                "properties": {}
            },
            {
                "species": [
                    {
                        "element": "O",
                        "occu": 1
                    }
                ],
                "abc": [
                    0.06675964,
                    0.96982308,
                    0.2840763
                ],
                "xyz": [
                    -4.614874719522707,
                    1.3820563595031914,
                    4.340161875015333
                ],
                "label": "O",
                "properties": {}
            },
            {
                "species": [
                    {
                        "element": "O",
                        "occu": 1
                    }
                ],
                "abc": [
                    0.7159237,
                    0.93324036,
                    0.03017692
                ],
                "xyz": [
                    -1.1105411081367265,
                    4.687626717603823,
                    5.518920164984666
                ],
                "label": "O",
                "properties": {}
            }
        ]
    },
    "spacegroup": {
        "source": "spglib",
        "symbol": "R-3",
        "number": 148,
        "point_group": "-3",
        "crystal_system": "trigonal",
        "hall": "-R 3"
    },
    "dielectric": {
        "epsilon_ionic": [
            [
                20.5929426,
                7.149e-05,
                8.14e-06
            ],
            [
                7.149e-05,
                20.59274092,
                1.152e-05
            ],
            [
                8.14e-06,
                1.152e-05,
                14.77399396
            ]
        ],
        "epsilon_ionic_avg": 18.653225826666667,
        "epsilon_ionic_eig": [
            20.59296537040038,
            20.592718149633818,
            14.773993959965807
        ],
        "epsilon_electronic": [
            [
                4.8353081,
                -1.24e-06,
                0.0
            ],
            [
                1.24e-06,
                4.83530893,
                0.0
            ],
            [
                0.0,
                -0.0,
                4.56553738
            ]
        ],
        "epsilon_electronic_avg": 4.745384803333333,
        "epsilon_electronic_eig": [
            4.8353085149999995,
            4.8353085149999995,
            4.56553738
        ]
    },
    "phonon": {
        "lowest_freq": -0.020905535350947423,
        "frequency": [
            -0.020905535350947423,
            -0.02090553359734386,
            -0.017751955307693947,
            2.5726566375658195,
            2.572656699315251,
            2.9475763185942103,
            3.277533449175061,
            3.3109874717107486,
            3.310987545525624,
            3.7877265177169748,
            3.7877266209557394,
            3.8287857379046524,
            3.8287859772757034,
            3.8312742254493366,
            3.9791523119773604,
            5.048251165954729,
            5.1082577763354635,
            5.108257800257527,
            5.440394891100242,
            5.440395093254789,
            5.683509679252793,
            6.417997716250456,
            6.536361507897501,
            6.536361713547189,
            6.796114792128911,
            6.796114810109782,
            7.859137486565518,
            8.547049658218757,
            8.54704995846287,
            8.727864550124204,
            8.727864774142464,
            8.755661680664174,
            8.78156561267615,
            9.338932010650774,
            9.338932337776145,
            9.493162282559275,
            9.493162437028435,
            9.998617531364976,
            10.330439910918752,
            10.330440608837108,
            11.026394551226142,
            11.044882489820106,
            11.476984378740806,
            12.00009391881014,
            12.000094030825991,
            12.17075626881345,
            13.246296410749471,
            14.619369058319043,
            14.61936916698316,
            15.024325557540353,
            15.024326208218813,
            15.578071896645218,
            16.03357207372062,
            16.03357207372062,
            17.334551532908574,
            17.33455202637415,
            21.965900247768907
        ]
    },
    "born_effective_charge": {
        "avg_abs_trace": 3.4469980701754386,
        "tensors": [
            [
                [
                    4.52684,
                    0.23854,
                    -0.39022
                ],
                [
                    0.20644,
                    3.8662,
                    -0.05522
                ],
                [
                    -0.468,
                    0.216,
                    4.13946
                ]
            ],
            [
                [
                    3.8385,
                    0.19106,
                    0.14735
                ],
                [
                    0.15863,
                    4.55434,
                    0.36535
                ],
                [
                    0.42104,
                    0.29731,
                    4.13949
                ]
            ],
            [
                [
                    4.22388,
                    -0.38132,
                    0.24282
                ],
                [
                    -0.41338,
                    4.1689,
                    -0.31012
                ],
                [
                    0.04696,
                    -0.51328,
                    4.13949
                ]
            ],
            [
                [
                    4.22383,
                    -0.38138,
                    0.24286
                ],
                [
                    -0.41336,
                    4.16884,
                    -0.31015
                ],
                [
                    0.04693,
                    -0.5133,
                    4.13946
                ]
            ],
            [
                [
                    3.83852,
                    0.191,
                    0.14736
                ],
                [
                    0.15866,
                    4.55428,
                    0.36535
                ],
                [
                    0.42107,
                    0.2973,
                    4.13946
                ]
            ],
            [
                [
                    4.52688,
                    0.23861,
                    -0.39017
                ],
                [
                    0.20638,
                    3.86626,
                    -0.05517
                ],
                [
                    -0.468,
                    0.21597,
                    4.13949
                ]
            ],
            [
                [
                    8.37889,
                    -0.27485,
                    0.0
                ],
                [
                    0.27493,
                    8.37891,
                    0.0
                ],
                [
                    0.0,
                    -0.0,
                    6.28752
                ]
            ],
            [
                [
                    -2.49962,
                    -0.93571,
                    -0.78929
                ],
                [
                    -1.00344,
                    -2.93022,
                    -0.88643
                ],
                [
                    -0.82005,
                    -0.94445,
                    -2.66718
                ]
            ],
            [
                [
                    -1.98305,
                    0.70513,
                    -0.37296
                ],
                [
                    0.6375,
                    -3.44684,
                    1.12684
                ],
                [
                    -0.40787,
                    1.18248,
                    -2.66717
                ]
            ],
            [
                [
                    -3.00846,
                    -0.24356,
                    -0.10814
                ],
                [
                    -0.2353,
                    -2.74737,
                    0.1053
                ],
                [
                    -0.1022,
                    0.04171,
                    -2.52022
                ]
            ],
            [
                [
                    -2.60519,
                    0.00246,
                    0.14522
                ],
                [
                    0.01056,
                    -3.15088,
                    0.04107
                ],
                [
                    0.08722,
                    0.06768,
                    -2.52023
                ]
            ],
            [
                [
                    -3.66238,
                    0.33209,
                    1.16225
                ],
                [
                    0.26445,
                    -1.76745,
                    -0.24041
                ],
                [
                    1.22799,
                    -0.23802,
                    -2.66717
                ]
            ],
            [
                [
                    -3.0199,
                    0.22872,
                    -0.03705
                ],
                [
                    0.23707,
                    -2.73617,
                    -0.14636
                ],
                [
                    0.015,
                    -0.10937,
                    -2.52023
                ]
            ],
            [
                [
                    -3.01992,
                    0.22874,
                    -0.03708
                ],
                [
                    0.23706,
                    -2.73616,
                    -0.14636
                ],
                [
                    0.01498,
                    -0.10936,
                    -2.52022
                ]
            ],
            [
                [
                    -3.66241,
                    0.33213,
                    1.16222
                ],
                [
                    0.26439,
                    -1.76745,
                    -0.24041
                ],
                [
                    1.22795,
                    -0.23796,
                    -2.66718
                ]
            ],
            [
                [
                    -2.60519,
                    0.00247,
                    0.14523
                ],
                [
                    0.01058,
                    -3.1508,
                    0.04102
                ],
                [
                    0.08722,
                    0.06765,
                    -2.52022
                ]
            ],
            [
                [
                    -3.00849,
                    -0.24357,
                    -0.10817
                ],
                [
                    -0.23529,
                    -2.74736,
                    0.1053
                ],
                [
                    -0.10222,
                    0.04169,
                    -2.52023
                ]
            ],
            [
                [
                    -1.98307,
                    0.70518,
                    -0.37293
                ],
                [
                    0.63752,
                    -3.44683,
                    1.12684
                ],
                [
                    -0.40789,
                    1.18241,
                    -2.66718
                ]
            ],
            [
                [
                    -2.49965,
                    -0.93573,
                    -0.78929
                ],
                [
                    -1.00341,
                    -2.93019,
                    -0.88643
                ],
                [
                    -0.82012,
                    -0.94446,
                    -2.66717
                ]
            ]
        ]
    },
    "band_gap": 3.2830000000000004,
    "is_direct": false,
    "formula": "La6WO12"
}