{
    "mp_id": "mp-756570",
    "nelements": 3,
    "nsites": 16,
    "elements": [
        "O",
        "Rb",
        "Sn"
    ],
    "structure": {
        "@module": "pymatgen.core.structure",
        "@class": "Structure",
        "charge": null,
        "lattice": {
            "matrix": [
                [
                    3.31449837,
                    -9.64824013,
                    -0.00058386
                ],
                [
                    3.31449837,
                    9.64824013,
                    -0.00058386
                ],
                [
                    -2.77000022,
                    0.0,
                    6.33583022
                ]
            ],
            "a": 10.201687967771194,
            "b": 10.201687967771194,
            "c": 6.91488581217834,
            "alpha": 97.48122816895594,
            "beta": 97.48122816895594,
            "gamma": 142.0813230379563,
            "volume": 405.19678654226175
        },
        "sites": [
            {
                "species": [
                    {
                        "element": "Rb",
                        "occu": 1
                    }
                ],
                "abc": [
                    0.2845198,
                    0.59811722,
                    0.80707095
                ],
                "xyz": [
                    0.6899122550360484,
                    3.025663212308465,
                    5.112949178243612
                ],
                "label": "Rb",
                "properties": {}
            },
            {
                "species": [
                    {
                        "element": "Rb",
                        "occu": 1
                    }
                ],
                "abc": [
                    0.51331851,
                    0.45563729,
                    0.72396954
                ],
                "xyz": [
                    1.2062066346287468,
                    -0.5565222615513585,
                    4.586382355358111
                ],
                "label": "Rb",
                "properties": {}
            },
            {
                "species": [
                    {
                        "element": "Rb",
                        "occu": 1
                    }
                ],
                "abc": [
                    0.93849042,
                    0.03568244,
                    0.74714004
                ],
                "xyz": [
                    1.1593162813974298,
                    -8.710508182320238,
                    4.733183663437969
                ],
                "label": "Rb",
                "properties": {}
            },
            {
                "species": [
                    {
                        "element": "Rb",
                        "occu": 1
                    }
                ],
                "abc": [
                    0.76391554,
                    0.3301577,
                    0.86138675
                ],
                "xyz": [
                    1.2402624836355338,
                    -4.184999798590118,
                    5.4569614161556785
                ],
                "label": "Rb",
                "properties": {}
            },
            {
                "species": [
                    {
                        "element": "Rb",
                        "occu": 1
                    }
                ],
                "abc": [
                    0.59811722,
                    0.2845198,
                    0.30707095
                ],
                "xyz": [
                    2.0749123650360484,
                    -3.025663212308465,
                    1.9450340682436118
                ],
                "label": "Rb",
                "properties": {}
            },
            {
                "species": [
                    {
                        "element": "Rb",
                        "occu": 1
                    }
                ],
                "abc": [
                    0.45563729,
                    0.51331851,
                    0.22396954
                ],
                "xyz": [
                    2.591206744628747,
                    0.5565222615513585,
                    1.4184672453581106
                ],
                "label": "Rb",
                "properties": {}
            },
            {
                "species": [
                    {
                        "element": "Rb",
                        "occu": 1
                    }
                ],
                "abc": [
                    0.03568244,
                    0.93849042,
                    0.24714004
                ],
                "xyz": [
                    2.5443163913974294,
                    8.710508182320238,
                    1.5652685534379691
                ],
                "label": "Rb",
                "properties": {}
            },
            {
                "species": [
                    {
                        "element": "Rb",
                        "occu": 1
                    }
                ],
                "abc": [
                    0.3301577,
                    0.76391554,
                    0.36138675
                ],
                "xyz": [
                    2.625262593635534,
                    4.184999798590118,
                    2.2890463061556785
                ],
                "label": "Rb",
                "properties": {}
            },
            {
                "species": [
                    {
                        "element": "Sn",
                        "occu": 1
                    }
                ],
                "abc": [
                    0.15631956,
                    0.88162288,
                    0.72521345
                ],
                "xyz": [
                    1.4314171094868637,
                    6.997900598446231,
                    4.594223279387441
                ],
                "label": "Sn",
                "properties": {}
            },
            {
                "species": [
                    {
                        "element": "Sn",
                        "occu": 1
                    }
                ],
                "abc": [
                    0.88162288,
                    0.15631956,
                    0.22521345
                ],
                "xyz": [
                    2.8164172194868637,
                    -6.997900598446231,
                    1.4263081693874406
                ],
                "label": "Sn",
                "properties": {}
            },
            {
                "species": [
                    {
                        "element": "O",
                        "occu": 1
                    }
                ],
                "abc": [
                    0.31048622,
                    0.1640585,
                    0.94915232
                ],
                "xyz": [
                    -1.0562744342814043,
                    -1.4127698042484034,
                    6.013390884758891
                ],
                "label": "O",
                "properties": {}
            },
            {
                "species": [
                    {
                        "element": "O",
                        "occu": 1
                    }
                ],
                "abc": [
                    0.35366964,
                    0.04071755,
                    0.5439874
                ],
                "xyz": [
                    -0.19964951927334784,
                    -3.0194369135053716,
                    3.4463815413144747
                ],
                "label": "O",
                "properties": {}
            },
            {
                "species": [
                    {
                        "element": "O",
                        "occu": 1
                    }
                ],
                "abc": [
                    0.1640585,
                    0.31048622,
                    0.44915232
                ],
                "xyz": [
                    0.3287256757185959,
                    1.4127698042484034,
                    2.8454757747588912
                ],
                "label": "O",
                "properties": {}
            },
            {
                "species": [
                    {
                        "element": "O",
                        "occu": 1
                    }
                ],
                "abc": [
                    0.04071755,
                    0.35366964,
                    0.0439874
                ],
                "xyz": [
                    1.1853505907266522,
                    3.0194369135053716,
                    0.2784664313144746
                ],
                "label": "O",
                "properties": {}
            },
            {
                "species": [
                    {
                        "element": "O",
                        "occu": 1
                    }
                ],
                "abc": [
                    0.85160474,
                    0.71005498,
                    0.53476554
                ],
                "xyz": [
                    3.694817932986237,
                    -1.3657060748238674,
                    3.3872718783024993
                ],
                "label": "O",
                "properties": {}
            },
            {
                "species": [
                    {
                        "element": "O",
                        "occu": 1
                    }
                ],
                "abc": [
                    0.71005498,
                    0.85160474,
                    0.03476554
                ],
                "xyz": [
                    5.079818042986237,
                    1.3657060748238674,
                    0.2193567683024996
                ],
                "label": "O",
                "properties": {}
            }
        ]
    },
    "spacegroup": {
        "source": "spglib",
        "symbol": "Cc",
        "number": 9,
        "point_group": "m",
        "crystal_system": "monoclinic",
        "hall": "C -2yc"
    },
    "dielectric": {
        "epsilon_ionic": [
            [
                5.58679583,
                7.01e-06,
                -0.41173022
            ],
            [
                7.01e-06,
                5.66477966,
                -6.95e-06
            ],
            [
                -0.41173022,
                -6.95e-06,
                7.63595411
            ]
        ],
        "epsilon_ionic_avg": 6.295843199999999,
        "epsilon_ionic_eig": [
            7.71558699142342,
            5.507162948412679,
            5.664779660163898
        ],
        "epsilon_electronic": [
            [
                3.82407113,
                0.0,
                0.00642038
            ],
            [
                0.0,
                3.75796353,
                0.0
            ],
            [
                0.00611244,
                0.0,
                3.79625191
            ]
        ],
        "epsilon_electronic_avg": 3.79276219,
        "epsilon_electronic_eig": [
            3.825416730187975,
            3.794906309812025,
            3.75796353
        ]
    },
    "phonon": {
        "lowest_freq": -0.0479077116184485,
        "frequency": [
            -0.0479077116184485,
            -0.032486718400439894,
            -0.02144401771526382,
            0.9800132243502535,
            1.0048002508741751,
            1.440658903391742,
            1.5076350308169648,
            1.6150413220265005,
            1.6285440606518957,
            1.7957709911939037,
            1.8852014078903991,
            1.93302067786524,
            2.081924932944781,
            2.0853609794558334,
            2.3077067438841925,
            2.409837459725033,
            2.544624705215768,
            2.6372006940985866,
            2.6657190034428475,
            2.677311599628178,
            2.750883205404244,
            2.841363080752409,
            2.90644203087033,
            3.2923590112559573,
            3.327931017950035,
            3.391109424772776,
            3.4702625318075864,
            3.65014910612676,
            3.7242580088383623,
            3.8268406348441832,
            4.769576269360009,
            4.928741347219622,
            5.425727044203711,
            5.566729019314183,
            5.67627213378191,
            6.0386176896504455,
            7.657452226602934,
            8.049381070753176,
            8.09327015404647,
            8.204557263307693,
            8.981417104170333,
            9.539072829707864,
            13.607361091339158,
            13.730616386296198,
            13.768401764619158,
            13.894252627127226,
            15.620337414221172,
            16.00663437937776
        ]
    },
    "born_effective_charge": {
        "avg_abs_trace": 1.5387935416666667,
        "tensors": [
            [
                [
                    1.16316,
                    -0.09321,
                    0.13737
                ],
                [
                    -0.05668,
                    0.8582,
                    0.02478
                ],
                [
                    0.17525,
                    0.00785,
                    1.37508
                ]
            ],
            [
                [
                    1.39362,
                    0.07964,
                    -0.00653
                ],
                [
                    0.05601,
                    1.23088,
                    0.03772
                ],
                [
                    0.03009,
                    0.01916,
                    1.06481
                ]
            ],
            [
                [
                    1.02735,
                    -0.02899,
                    -0.17026
                ],
                [
                    -0.03512,
                    1.37892,
                    0.20028
                ],
                [
                    -0.18605,
                    0.1648,
                    1.25828
                ]
            ],
            [
                [
                    1.14153,
                    -0.21872,
                    0.10503
                ],
                [
                    -0.21609,
                    1.27934,
                    -0.29067
                ],
                [
                    0.08819,
                    -0.31202,
                    1.16905
                ]
            ],
            [
                [
                    1.16316,
                    0.09321,
                    0.13737
                ],
                [
                    0.05668,
                    0.85819,
                    -0.0248
                ],
                [
                    0.17525,
                    -0.00785,
                    1.37508
                ]
            ],
            [
                [
                    1.39362,
                    -0.07964,
                    -0.00653
                ],
                [
                    -0.05603,
                    1.23089,
                    -0.03771
                ],
                [
                    0.03009,
                    -0.01916,
                    1.06481
                ]
            ],
            [
                [
                    1.02735,
                    0.02899,
                    -0.17026
                ],
                [
                    0.03515,
                    1.37889,
                    -0.2003
                ],
                [
                    -0.18605,
                    -0.1648,
                    1.25828
                ]
            ],
            [
                [
                    1.14153,
                    0.21872,
                    0.10503
                ],
                [
                    0.21608,
                    1.27934,
                    0.29068
                ],
                [
                    0.08819,
                    0.31202,
                    1.16905
                ]
            ],
            [
                [
                    1.40419,
                    0.04045,
                    0.07113
                ],
                [
                    0.10125,
                    1.4322,
                    -0.0286
                ],
                [
                    -0.02115,
                    -0.05429,
                    1.28892
                ]
            ],
            [
                [
                    1.40419,
                    -0.04045,
                    0.07113
                ],
                [
                    -0.10125,
                    1.43221,
                    0.0286
                ],
                [
                    -0.02115,
                    0.05429,
                    1.28892
                ]
            ],
            [
                [
                    -1.61086,
                    -0.5059,
                    -0.31264
                ],
                [
                    -0.49706,
                    -2.26127,
                    -0.44373
                ],
                [
                    -0.48116,
                    -0.71267,
                    -2.21121
                ]
            ],
            [
                [
                    -2.56449,
                    0.00178,
                    0.78521
                ],
                [
                    0.27935,
                    -1.69667,
                    -0.1009
                ],
                [
                    0.82009,
                    -0.0842,
                    -1.97728
                ]
            ],
            [
                [
                    -1.61086,
                    0.5059,
                    -0.31264
                ],
                [
                    0.49706,
                    -2.26126,
                    0.44374
                ],
                [
                    -0.48116,
                    0.71267,
                    -2.21121
                ]
            ],
            [
                [
                    -2.56449,
                    -0.00178,
                    0.78521
                ],
                [
                    -0.27935,
                    -1.69666,
                    0.1009
                ],
                [
                    0.82009,
                    0.0842,
                    -1.97728
                ]
            ],
            [
                [
                    -1.9545,
                    0.51284,
                    -0.6093
                ],
                [
                    0.20367,
                    -2.2216,
                    0.55363
                ],
                [
                    -0.42526,
                    0.62583,
                    -1.96766
                ]
            ],
            [
                [
                    -1.9545,
                    -0.51284,
                    -0.6093
                ],
                [
                    -0.20367,
                    -2.22159,
                    -0.55362
                ],
                [
                    -0.42526,
                    -0.62583,
                    -1.96766
                ]
            ]
        ]
    },
    "band_gap": 1.7835,
    "is_direct": false,
    "formula": "Rb4SnO3"
}