{
    "mp_id": "mp-7472",
    "nelements": 3,
    "nsites": 8,
    "elements": [
        "Au",
        "O",
        "Rb"
    ],
    "structure": {
        "@module": "pymatgen.core.structure",
        "@class": "Structure",
        "charge": null,
        "lattice": {
            "matrix": [
                [
                    2.35260586,
                    -6.06685384,
                    0.0
                ],
                [
                    2.35260586,
                    6.06685384,
                    0.0
                ],
                [
                    0.0,
                    0.0,
                    5.98906303
                ]
            ],
            "a": 6.507032338050049,
            "b": 6.507032338050049,
            "c": 5.98906303,
            "alpha": 90.0,
            "beta": 90.0,
            "gamma": 137.60938588581152,
            "volume": 170.96278584304142
        },
        "sites": [
            {
                "species": [
                    {
                        "element": "Rb",
                        "occu": 1
                    }
                ],
                "abc": [
                    0.30134528,
                    0.69865472,
                    0.75
                ],
                "xyz": [
                    2.3526058599999997,
                    2.41041830173225,
                    4.4917972724999995
                ],
                "label": "Rb",
                "properties": {}
            },
            {
                "species": [
                    {
                        "element": "Rb",
                        "occu": 1
                    }
                ],
                "abc": [
                    0.69865472,
                    0.30134528,
                    0.25
                ],
                "xyz": [
                    2.3526058599999997,
                    -2.41041830173225,
                    1.4972657575
                ],
                "label": "Rb",
                "properties": {}
            },
            {
                "species": [
                    {
                        "element": "Au",
                        "occu": 1
                    }
                ],
                "abc": [
                    0.99760054,
                    0.00239946,
                    0.25
                ],
                "xyz": [
                    2.35260586,
                    -6.037739493770147,
                    1.4972657575
                ],
                "label": "Au",
                "properties": {}
            },
            {
                "species": [
                    {
                        "element": "Au",
                        "occu": 1
                    }
                ],
                "abc": [
                    0.00239946,
                    0.99760054,
                    0.75
                ],
                "xyz": [
                    2.35260586,
                    6.037739493770147,
                    4.4917972724999995
                ],
                "label": "Au",
                "properties": {}
            },
            {
                "species": [
                    {
                        "element": "O",
                        "occu": 1
                    }
                ],
                "abc": [
                    0.89096825,
                    0.10903175,
                    0.50463658
                ],
                "xyz": [
                    2.3526058600000006,
                    -4.74389445766116,
                    3.022300284863637
                ],
                "label": "O",
                "properties": {}
            },
            {
                "species": [
                    {
                        "element": "O",
                        "occu": 1
                    }
                ],
                "abc": [
                    0.10903175,
                    0.89096825,
                    0.49536342
                ],
                "xyz": [
                    2.3526058600000006,
                    4.74389445766116,
                    2.9667627451363625
                ],
                "label": "O",
                "properties": {}
            },
            {
                "species": [
                    {
                        "element": "O",
                        "occu": 1
                    }
                ],
                "abc": [
                    0.89096825,
                    0.10903175,
                    0.99536342
                ],
                "xyz": [
                    2.3526058600000006,
                    -4.74389445766116,
                    5.961294260136362
                ],
                "label": "O",
                "properties": {}
            },
            {
                "species": [
                    {
                        "element": "O",
                        "occu": 1
                    }
                ],
                "abc": [
                    0.10903175,
                    0.89096825,
                    0.00463658
                ],
                "xyz": [
                    2.3526058600000006,
                    4.74389445766116,
                    0.0277687698636374
                ],
                "label": "O",
                "properties": {}
            }
        ]
    },
    "spacegroup": {
        "source": "spglib",
        "symbol": "Cmcm",
        "number": 63,
        "point_group": "mmm",
        "crystal_system": "orthorhombic",
        "hall": "-C 2c 2"
    },
    "dielectric": {
        "epsilon_ionic": [
            [
                1.98471902,
                -0.0,
                0.0
            ],
            [
                -0.0,
                1.95300112,
                -1e-08
            ],
            [
                0.0,
                -1e-08,
                4.01937579
            ]
        ],
        "epsilon_ionic_avg": 2.65236531,
        "epsilon_ionic_eig": [
            4.01937579,
            1.95300112,
            1.98471902
        ],
        "epsilon_electronic": [
            [
                2.36700083,
                0.0,
                0.0
            ],
            [
                0.0,
                3.0104155,
                0.0
            ],
            [
                0.0,
                0.0,
                4.90950841
            ]
        ],
        "epsilon_electronic_avg": 3.428974913333333,
        "epsilon_electronic_eig": [
            2.36700083,
            3.0104155,
            4.90950841
        ]
    },
    "phonon": {
        "lowest_freq": -0.03286733897920187,
        "frequency": [
            -0.03286733897920187,
            -0.02150547628079809,
            -0.009059119619437735,
            1.8507929905491665,
            2.0998882043507665,
            2.487245775691852,
            2.531921671283897,
            2.7705494692724595,
            3.0547875098904633,
            3.1926178423198643,
            3.3560026225926936,
            3.4348918170461165,
            4.518027988879159,
            7.5093416391819545,
            8.147212400733371,
            8.508369311501857,
            14.72419129159022,
            16.13337641244225,
            16.326678369332623,
            16.663405040422276,
            17.127677508213047,
            17.477909211994312,
            17.815283425238214,
            18.08047899975296
        ]
    },
    "born_effective_charge": {
        "avg_abs_trace": 1.6008670833333332,
        "tensors": [
            [
                [
                    1.21059,
                    -4e-05,
                    0.0
                ],
                [
                    0.0,
                    1.49838,
                    -0.0
                ],
                [
                    0.0,
                    0.00015,
                    1.06695
                ]
            ],
            [
                [
                    1.21059,
                    4e-05,
                    0.0
                ],
                [
                    0.0,
                    1.49849,
                    -0.0
                ],
                [
                    -0.0,
                    -0.00015,
                    1.06695
                ]
            ],
            [
                [
                    -0.04833,
                    -2e-05,
                    0.0
                ],
                [
                    0.0,
                    1.13521,
                    -0.0
                ],
                [
                    -0.0,
                    -0.00017,
                    4.74217
                ]
            ],
            [
                [
                    -0.04833,
                    2e-05,
                    0.0
                ],
                [
                    0.0,
                    1.13555,
                    -0.0
                ],
                [
                    -0.0,
                    0.00017,
                    4.74217
                ]
            ],
            [
                [
                    -0.58113,
                    4e-05,
                    7e-05
                ],
                [
                    0.0,
                    -1.31685,
                    -0.0272
                ],
                [
                    -0.0,
                    0.05723,
                    -2.9044
                ]
            ],
            [
                [
                    -0.58113,
                    -4e-05,
                    -7e-05
                ],
                [
                    0.0,
                    -1.31697,
                    -0.02704
                ],
                [
                    0.0,
                    0.05661,
                    -2.90473
                ]
            ],
            [
                [
                    -0.58113,
                    4e-05,
                    -7e-05
                ],
                [
                    0.0,
                    -1.31685,
                    0.0272
                ],
                [
                    -0.0,
                    -0.05661,
                    -2.90473
                ]
            ],
            [
                [
                    -0.58113,
                    -4e-05,
                    7e-05
                ],
                [
                    0.0,
                    -1.31697,
                    0.02704
                ],
                [
                    0.0,
                    -0.05723,
                    -2.9044
                ]
            ]
        ]
    },
    "band_gap": 1.8251,
    "is_direct": false,
    "formula": "RbAuO2"
}