{
    "mp_id": "mp-8042",
    "nelements": 3,
    "nsites": 12,
    "elements": [
        "Ge",
        "O",
        "Zr"
    ],
    "structure": {
        "@module": "pymatgen.core.structure",
        "@class": "Structure",
        "charge": null,
        "lattice": {
            "matrix": [
                [
                    -2.45866433,
                    2.45866433,
                    5.2954398
                ],
                [
                    2.45866433,
                    -2.45866433,
                    5.2954398
                ],
                [
                    2.45866433,
                    2.45866433,
                    -5.2954398
                ]
            ],
            "a": 6.334961977048697,
            "b": 6.334961977048697,
            "c": 6.334961977048697,
            "alpha": 134.32605790725322,
            "beta": 134.32605790725322,
            "gamma": 66.5791762955797,
            "volume": 128.04437590895387
        },
        "sites": [
            {
                "species": [
                    {
                        "element": "Zr",
                        "occu": 1
                    }
                ],
                "abc": [
                    0.25,
                    0.75,
                    0.5
                ],
                "xyz": [
                    2.4586643300000004,
                    -2.220446049250313e-16,
                    2.6477199
                ],
                "label": "Zr",
                "properties": {}
            },
            {
                "species": [
                    {
                        "element": "Zr",
                        "occu": 1
                    }
                ],
                "abc": [
                    0.5,
                    0.5,
                    0.0
                ],
                "xyz": [
                    0.0,
                    0.0,
                    5.2954398
                ],
                "label": "Zr",
                "properties": {}
            },
            {
                "species": [
                    {
                        "element": "Ge",
                        "occu": 1
                    }
                ],
                "abc": [
                    0.75,
                    0.25,
                    0.5
                ],
                "xyz": [
                    -2.220446049250313e-16,
                    2.4586643300000004,
                    2.6477199
                ],
                "label": "Ge",
                "properties": {}
            },
            {
                "species": [
                    {
                        "element": "Ge",
                        "occu": 1
                    }
                ],
                "abc": [
                    0.0,
                    0.0,
                    0.0
                ],
                "xyz": [
                    0.0,
                    0.0,
                    0.0
                ],
                "label": "Ge",
                "properties": {}
            },
            {
                "species": [
                    {
                        "element": "O",
                        "occu": 1
                    }
                ],
                "abc": [
                    0.56726537,
                    0.16038303,
                    0.0594556
                ],
                "xyz": [
                    -0.8542057329261844,
                    1.1465684588036804,
                    3.5383747471934397
                ],
                "label": "O",
                "properties": {}
            },
            {
                "species": [
                    {
                        "element": "O",
                        "occu": 1
                    }
                ],
                "abc": [
                    0.25780977,
                    0.81726537,
                    0.90688234
                ],
                "xyz": [
                    3.60523278880368,
                    0.8542057329261841,
                    0.8906548471934403
                ],
                "label": "O",
                "properties": {}
            },
            {
                "species": [
                    {
                        "element": "O",
                        "occu": 1
                    }
                ],
                "abc": [
                    0.91038303,
                    0.35092743,
                    0.09311766
                ],
                "xyz": [
                    -1.14656845880368,
                    1.6044585970738157,
                    6.18609464719344
                ],
                "label": "O",
                "properties": {}
            },
            {
                "species": [
                    {
                        "element": "O",
                        "occu": 1
                    }
                ],
                "abc": [
                    0.10092743,
                    0.50780977,
                    0.9405444
                ],
                "xyz": [
                    3.3128700629261836,
                    1.3120958711963195,
                    -1.7570650528065594
                ],
                "label": "O",
                "properties": {}
            },
            {
                "species": [
                    {
                        "element": "O",
                        "occu": 1
                    }
                ],
                "abc": [
                    0.64907257,
                    0.74219023,
                    0.5594556
                ],
                "xyz": [
                    1.6044585970738159,
                    1.1465684588036802,
                    4.404784952806558
                ],
                "label": "O",
                "properties": {}
            },
            {
                "species": [
                    {
                        "element": "O",
                        "occu": 1
                    }
                ],
                "abc": [
                    0.83961697,
                    0.89907257,
                    0.40688234
                ],
                "xyz": [
                    1.14656845880368,
                    0.8542057329261843,
                    7.052504852806559
                ],
                "label": "O",
                "properties": {}
            },
            {
                "species": [
                    {
                        "element": "O",
                        "occu": 1
                    }
                ],
                "abc": [
                    0.49219023,
                    0.43273463,
                    0.59311766
                ],
                "xyz": [
                    1.3120958711963198,
                    1.6044585970738159,
                    1.7570650528065594
                ],
                "label": "O",
                "properties": {}
            },
            {
                "species": [
                    {
                        "element": "O",
                        "occu": 1
                    }
                ],
                "abc": [
                    0.18273463,
                    0.08961697,
                    0.4405444
                ],
                "xyz": [
                    0.8542057329261841,
                    1.3120958711963198,
                    -0.8906548471934399
                ],
                "label": "O",
                "properties": {}
            }
        ]
    },
    "spacegroup": {
        "source": "spglib",
        "symbol": "I4_1/a",
        "number": 88,
        "point_group": "4/m",
        "crystal_system": "tetragonal",
        "hall": "I 4bw -1bw"
    },
    "dielectric": {
        "epsilon_ionic": [
            [
                14.14630277,
                -0.00033558,
                -0.0
            ],
            [
                -0.00033558,
                14.14656501,
                -0.0
            ],
            [
                -0.0,
                -0.0,
                10.7038624
            ]
        ],
        "epsilon_ionic_avg": 12.99891006,
        "epsilon_ionic_eig": [
            14.146073603460145,
            14.146794176539855,
            10.7038624
        ],
        "epsilon_electronic": [
            [
                4.83680113,
                -4.2e-07,
                0.0
            ],
            [
                4.2e-07,
                4.83680113,
                0.0
            ],
            [
                0.0,
                0.0,
                4.5989093
            ]
        ],
        "epsilon_electronic_avg": 4.757503853333333,
        "epsilon_electronic_eig": [
            4.83680113,
            4.83680113,
            4.5989093
        ]
    },
    "phonon": {
        "lowest_freq": -0.025410478957651948,
        "frequency": [
            -0.025410478957651948,
            -0.020926731633834232,
            -0.020926731633834232,
            4.60872897980756,
            5.255173498089768,
            5.265582592564051,
            5.265582592564051,
            5.526347712440233,
            5.526347712440233,
            7.360806797154196,
            7.360806797154196,
            8.20512343072857,
            8.253082724966491,
            8.758135838473402,
            8.758135838473402,
            9.052259245739005,
            9.767566010827192,
            10.931723109238382,
            10.931723109238382,
            11.193555607805541,
            11.49742962276549,
            13.02259577977789,
            13.02259577977789,
            14.621398813302774,
            14.621398813302774,
            15.12082507881219,
            16.256500219728345,
            18.38022740614124,
            20.287230835422182,
            20.287230835422182,
            20.356320215689593,
            21.28558645055902,
            22.30665145877363,
            22.736403199459176,
            22.736403199459176,
            23.11797182265254
        ]
    },
    "born_effective_charge": {
        "avg_abs_trace": 3.0545227777777786,
        "tensors": [
            [
                [
                    5.11354,
                    -0.02083,
                    -0.00022
                ],
                [
                    0.02077,
                    5.11352,
                    -0.0002
                ],
                [
                    0.0,
                    -0.0,
                    5.16003
                ]
            ],
            [
                [
                    5.11354,
                    -0.02083,
                    0.00022
                ],
                [
                    0.02077,
                    5.11352,
                    0.0002
                ],
                [
                    0.0,
                    -0.0,
                    5.16003
                ]
            ],
            [
                [
                    4.23911,
                    -0.02039,
                    -6e-05
                ],
                [
                    0.02034,
                    4.23917,
                    -1e-05
                ],
                [
                    0.0,
                    -0.0,
                    3.62534
                ]
            ],
            [
                [
                    4.23911,
                    -0.02039,
                    6e-05
                ],
                [
                    0.02034,
                    4.23917,
                    1e-05
                ],
                [
                    0.0,
                    -0.0,
                    3.62534
                ]
            ],
            [
                [
                    -2.31983,
                    -0.50063,
                    -0.37246
                ],
                [
                    -0.52131,
                    -2.35661,
                    0.34865
                ],
                [
                    -0.22787,
                    0.36362,
                    -2.19634
                ]
            ],
            [
                [
                    -2.35657,
                    0.52127,
                    0.3486
                ],
                [
                    0.50062,
                    -2.31974,
                    0.37247
                ],
                [
                    0.36362,
                    0.22787,
                    -2.19634
                ]
            ],
            [
                [
                    -2.35656,
                    0.52126,
                    -0.3485
                ],
                [
                    0.50069,
                    -2.31969,
                    -0.37244
                ],
                [
                    -0.36362,
                    -0.22787,
                    -2.19634
                ]
            ],
            [
                [
                    -2.3197,
                    -0.50068,
                    0.37259
                ],
                [
                    -0.52111,
                    -2.35664,
                    -0.34859
                ],
                [
                    0.22787,
                    -0.36362,
                    -2.19634
                ]
            ],
            [
                [
                    -2.31983,
                    -0.50063,
                    0.37246
                ],
                [
                    -0.52131,
                    -2.35661,
                    -0.34865
                ],
                [
                    0.22789,
                    -0.36362,
                    -2.19634
                ]
            ],
            [
                [
                    -2.35657,
                    0.52127,
                    -0.3486
                ],
                [
                    0.50062,
                    -2.31974,
                    -0.37247
                ],
                [
                    -0.36362,
                    -0.22789,
                    -2.19634
                ]
            ],
            [
                [
                    -2.35656,
                    0.52126,
                    0.3485
                ],
                [
                    0.50069,
                    -2.31969,
                    0.37244
                ],
                [
                    0.36362,
                    0.22789,
                    -2.19634
                ]
            ],
            [
                [
                    -2.3197,
                    -0.50068,
                    -0.37259
                ],
                [
                    -0.52111,
                    -2.35664,
                    0.34859
                ],
                [
                    -0.22789,
                    0.36362,
                    -2.19634
                ]
            ]
        ]
    },
    "band_gap": 4.009999999999999,
    "is_direct": false,
    "formula": "ZrGeO4"
}