{
    "mp_id": "mp-861868",
    "nelements": 5,
    "nsites": 18,
    "elements": [
        "K",
        "La",
        "Na",
        "O",
        "Ta"
    ],
    "structure": {
        "@module": "pymatgen.core.structure",
        "@class": "Structure",
        "charge": null,
        "lattice": {
            "matrix": [
                [
                    5.78609326,
                    0.0,
                    0.0
                ],
                [
                    0.0,
                    5.78609326,
                    0.0
                ],
                [
                    0.0,
                    0.0,
                    8.23530973
                ]
            ],
            "a": 5.78609326,
            "b": 5.78609326,
            "c": 8.23530973,
            "alpha": 90.0,
            "beta": 90.0,
            "gamma": 90.0,
            "volume": 275.7089067945124
        },
        "sites": [
            {
                "species": [
                    {
                        "element": "K",
                        "occu": 1
                    }
                ],
                "abc": [
                    0.5,
                    0.5,
                    0.0
                ],
                "xyz": [
                    2.89304663,
                    2.89304663,
                    0.0
                ],
                "label": "K",
                "properties": {}
            },
            {
                "species": [
                    {
                        "element": "K",
                        "occu": 1
                    }
                ],
                "abc": [
                    0.0,
                    0.0,
                    0.0
                ],
                "xyz": [
                    0.0,
                    0.0,
                    0.0
                ],
                "label": "K",
                "properties": {}
            },
            {
                "species": [
                    {
                        "element": "Na",
                        "occu": 1
                    }
                ],
                "abc": [
                    0.5,
                    0.0,
                    0.2416498
                ],
                "xyz": [
                    2.89304663,
                    0.0,
                    1.9900609491925543
                ],
                "label": "Na",
                "properties": {}
            },
            {
                "species": [
                    {
                        "element": "Na",
                        "occu": 1
                    }
                ],
                "abc": [
                    0.0,
                    0.5,
                    0.7583502
                ],
                "xyz": [
                    0.0,
                    2.89304663,
                    6.245248780807446
                ],
                "label": "Na",
                "properties": {}
            },
            {
                "species": [
                    {
                        "element": "La",
                        "occu": 1
                    }
                ],
                "abc": [
                    0.5,
                    0.5,
                    0.5
                ],
                "xyz": [
                    2.89304663,
                    2.89304663,
                    4.117654865
                ],
                "label": "La",
                "properties": {}
            },
            {
                "species": [
                    {
                        "element": "La",
                        "occu": 1
                    }
                ],
                "abc": [
                    0.0,
                    0.0,
                    0.5
                ],
                "xyz": [
                    0.0,
                    0.0,
                    4.117654865
                ],
                "label": "La",
                "properties": {}
            },
            {
                "species": [
                    {
                        "element": "Ta",
                        "occu": 1
                    }
                ],
                "abc": [
                    0.0,
                    0.5,
                    0.25595587
                ],
                "xyz": [
                    0.0,
                    2.89304663,
                    2.1078758666616153
                ],
                "label": "Ta",
                "properties": {}
            },
            {
                "species": [
                    {
                        "element": "Ta",
                        "occu": 1
                    }
                ],
                "abc": [
                    0.5,
                    0.0,
                    0.74404413
                ],
                "xyz": [
                    2.89304663,
                    0.0,
                    6.127433863338386
                ],
                "label": "Ta",
                "properties": {}
            },
            {
                "species": [
                    {
                        "element": "O",
                        "occu": 1
                    }
                ],
                "abc": [
                    0.0,
                    0.5,
                    0.0306065
                ],
                "xyz": [
                    0.0,
                    2.89304663,
                    0.252054007251245
                ],
                "label": "O",
                "properties": {}
            },
            {
                "species": [
                    {
                        "element": "O",
                        "occu": 1
                    }
                ],
                "abc": [
                    0.76903797,
                    0.26903797,
                    0.32518068
                ],
                "xyz": [
                    4.449725414901082,
                    1.5566787849010824,
                    2.6779636180120168
                ],
                "label": "O",
                "properties": {}
            },
            {
                "species": [
                    {
                        "element": "O",
                        "occu": 1
                    }
                ],
                "abc": [
                    0.23096203,
                    0.26903797,
                    0.32518068
                ],
                "xyz": [
                    1.336367845098918,
                    1.5566787849010824,
                    2.6779636180120168
                ],
                "label": "O",
                "properties": {}
            },
            {
                "species": [
                    {
                        "element": "O",
                        "occu": 1
                    }
                ],
                "abc": [
                    0.76903797,
                    0.73096203,
                    0.32518068
                ],
                "xyz": [
                    4.449725414901082,
                    4.229414475098919,
                    2.6779636180120168
                ],
                "label": "O",
                "properties": {}
            },
            {
                "species": [
                    {
                        "element": "O",
                        "occu": 1
                    }
                ],
                "abc": [
                    0.23096203,
                    0.73096203,
                    0.32518068
                ],
                "xyz": [
                    1.336367845098918,
                    4.229414475098919,
                    2.6779636180120168
                ],
                "label": "O",
                "properties": {}
            },
            {
                "species": [
                    {
                        "element": "O",
                        "occu": 1
                    }
                ],
                "abc": [
                    0.26903797,
                    0.76903797,
                    0.67481932
                ],
                "xyz": [
                    1.5566787849010824,
                    4.449725414901082,
                    5.557346111987984
                ],
                "label": "O",
                "properties": {}
            },
            {
                "species": [
                    {
                        "element": "O",
                        "occu": 1
                    }
                ],
                "abc": [
                    0.73096203,
                    0.76903797,
                    0.67481932
                ],
                "xyz": [
                    4.229414475098919,
                    4.449725414901082,
                    5.557346111987984
                ],
                "label": "O",
                "properties": {}
            },
            {
                "species": [
                    {
                        "element": "O",
                        "occu": 1
                    }
                ],
                "abc": [
                    0.26903797,
                    0.23096203,
                    0.67481932
                ],
                "xyz": [
                    1.5566787849010824,
                    1.336367845098918,
                    5.557346111987984
                ],
                "label": "O",
                "properties": {}
            },
            {
                "species": [
                    {
                        "element": "O",
                        "occu": 1
                    }
                ],
                "abc": [
                    0.73096203,
                    0.23096203,
                    0.67481932
                ],
                "xyz": [
                    4.229414475098919,
                    1.336367845098918,
                    5.557346111987984
                ],
                "label": "O",
                "properties": {}
            },
            {
                "species": [
                    {
                        "element": "O",
                        "occu": 1
                    }
                ],
                "abc": [
                    0.5,
                    0.0,
                    0.9693935
                ],
                "xyz": [
                    2.89304663,
                    0.0,
                    7.983255722748756
                ],
                "label": "O",
                "properties": {}
            }
        ]
    },
    "spacegroup": {
        "source": "spglib",
        "symbol": "P4/nmm",
        "number": 129,
        "point_group": "4/mmm",
        "crystal_system": "tetragonal",
        "hall": "P 4ab 2ab -1ab"
    },
    "dielectric": {
        "epsilon_ionic": [
            [
                9.5056793,
                -7e-08,
                0.0
            ],
            [
                -7e-08,
                9.50586769,
                0.0
            ],
            [
                0.0,
                0.0,
                10.07923385
            ]
        ],
        "epsilon_ionic_avg": 9.696926946666666,
        "epsilon_ionic_eig": [
            9.505679299973991,
            9.50586769002601,
            10.07923385
        ],
        "epsilon_electronic": [
            [
                3.55831654,
                0.0,
                0.0
            ],
            [
                0.0,
                3.55831654,
                0.0
            ],
            [
                0.0,
                0.0,
                3.31412939
            ]
        ],
        "epsilon_electronic_avg": 3.4769208233333333,
        "epsilon_electronic_eig": [
            3.55831654,
            3.55831654,
            3.31412939
        ]
    },
    "phonon": {
        "lowest_freq": -0.05817264458914815,
        "frequency": [
            -0.05817264458914815,
            -0.05817264458914815,
            -0.037605949424484426,
            2.074065751593514,
            2.318688500848888,
            2.512387176063716,
            2.512387176063716,
            2.998461137109667,
            2.998461137109667,
            3.4912904901462385,
            3.4912904901462385,
            3.614427523037893,
            4.244301519376436,
            4.244301519376436,
            4.262553839528083,
            4.438503285320777,
            4.438503285320777,
            4.783214619694682,
            4.942949169369724,
            5.112178174617735,
            5.112178174617735,
            5.398623577287399,
            5.398623577287399,
            5.572306520129991,
            6.8040758530762515,
            6.822244117146589,
            6.822244117146589,
            6.908288051843261,
            7.121475537948451,
            7.409000418396457,
            7.409000418396457,
            7.617212618050485,
            8.111656366550353,
            8.111656366550353,
            9.8879338504308,
            9.8879338504308,
            10.013118080925665,
            10.013118080925665,
            10.858546859097547,
            10.858546859097547,
            10.87078836227876,
            12.279162391895767,
            13.239112062019618,
            15.42612744996649,
            15.576159715572162,
            16.05709104480154,
            16.82765722539106,
            16.82765722539106,
            17.056286341200824,
            17.056286341200824,
            20.514423413843364,
            20.92386848501214,
            22.881847320184136,
            22.979679205613312
        ]
    },
    "born_effective_charge": {
        "avg_abs_trace": 2.3049925925925927,
        "tensors": [
            [
                [
                    1.18071,
                    -0.0,
                    8e-05
                ],
                [
                    0.0,
                    1.18069,
                    -8e-05
                ],
                [
                    0.0,
                    0.0,
                    1.35774
                ]
            ],
            [
                [
                    1.18071,
                    -0.0,
                    -8e-05
                ],
                [
                    0.0,
                    1.18069,
                    8e-05
                ],
                [
                    0.0,
                    0.0,
                    1.35774
                ]
            ],
            [
                [
                    1.18284,
                    -0.0,
                    -2e-05
                ],
                [
                    0.0,
                    1.18282,
                    -2e-05
                ],
                [
                    0.0,
                    0.0,
                    1.20085
                ]
            ],
            [
                [
                    1.18284,
                    -0.0,
                    2e-05
                ],
                [
                    0.0,
                    1.18282,
                    2e-05
                ],
                [
                    0.0,
                    0.0,
                    1.20096
                ]
            ],
            [
                [
                    4.09058,
                    -0.0,
                    0.00047
                ],
                [
                    0.0,
                    4.09076,
                    -0.00047
                ],
                [
                    0.0,
                    0.0,
                    3.27816
                ]
            ],
            [
                [
                    4.09058,
                    -0.0,
                    -0.00047
                ],
                [
                    0.0,
                    4.09076,
                    0.00047
                ],
                [
                    0.0,
                    0.0,
                    3.27816
                ]
            ],
            [
                [
                    4.58215,
                    -0.0,
                    1e-05
                ],
                [
                    0.0,
                    4.58215,
                    2e-05
                ],
                [
                    0.0,
                    0.0,
                    3.20799
                ]
            ],
            [
                [
                    4.58215,
                    -0.0,
                    -1e-05
                ],
                [
                    0.0,
                    4.58215,
                    -2e-05
                ],
                [
                    0.0,
                    0.0,
                    3.20779
                ]
            ],
            [
                [
                    -1.07612,
                    -0.0,
                    3e-05
                ],
                [
                    0.0,
                    -1.07611,
                    3e-05
                ],
                [
                    0.0,
                    0.0,
                    -3.12921
                ]
            ],
            [
                [
                    -2.48995,
                    -0.21164,
                    0.62626
                ],
                [
                    -0.21165,
                    -2.48999,
                    0.62626
                ],
                [
                    0.30249,
                    0.30249,
                    -1.47893
                ]
            ],
            [
                [
                    -2.49013,
                    0.2114,
                    -0.62621
                ],
                [
                    0.21165,
                    -2.48999,
                    0.62626
                ],
                [
                    -0.30249,
                    0.30249,
                    -1.47893
                ]
            ],
            [
                [
                    -2.48995,
                    0.21164,
                    0.62626
                ],
                [
                    0.21143,
                    -2.49017,
                    -0.6262
                ],
                [
                    0.30249,
                    -0.30249,
                    -1.47893
                ]
            ],
            [
                [
                    -2.49013,
                    -0.2114,
                    -0.62621
                ],
                [
                    -0.21143,
                    -2.49017,
                    -0.6262
                ],
                [
                    -0.30249,
                    -0.30249,
                    -1.47893
                ]
            ],
            [
                [
                    -2.48995,
                    -0.21164,
                    -0.62626
                ],
                [
                    -0.21165,
                    -2.48999,
                    -0.62626
                ],
                [
                    -0.30238,
                    -0.30238,
                    -1.47873
                ]
            ],
            [
                [
                    -2.49013,
                    0.2114,
                    0.62621
                ],
                [
                    0.21165,
                    -2.48999,
                    -0.62626
                ],
                [
                    0.30238,
                    -0.30238,
                    -1.47873
                ]
            ],
            [
                [
                    -2.48995,
                    0.21164,
                    -0.62626
                ],
                [
                    0.21143,
                    -2.49017,
                    0.6262
                ],
                [
                    -0.30238,
                    0.30238,
                    -1.47873
                ]
            ],
            [
                [
                    -2.49013,
                    -0.2114,
                    0.62621
                ],
                [
                    -0.21143,
                    -2.49017,
                    0.6262
                ],
                [
                    0.30238,
                    0.30238,
                    -1.47873
                ]
            ],
            [
                [
                    -1.07612,
                    -0.0,
                    -3e-05
                ],
                [
                    0.0,
                    -1.07611,
                    -3e-05
                ],
                [
                    0.0,
                    0.0,
                    -3.12954
                ]
            ]
        ]
    },
    "band_gap": 3.538,
    "is_direct": false,
    "formula": "KNaLaTaO5"
}