{
    "mp_id": "mp-8335",
    "nelements": 3,
    "nsites": 7,
    "elements": [
        "Ba",
        "O",
        "Zr"
    ],
    "structure": {
        "@module": "pymatgen.core.structure",
        "@class": "Structure",
        "charge": null,
        "lattice": {
            "matrix": [
                [
                    -2.10208379,
                    2.10208379,
                    6.73008739
                ],
                [
                    2.10208379,
                    -2.10208379,
                    6.73008739
                ],
                [
                    2.10208379,
                    2.10208379,
                    -6.73008739
                ]
            ],
            "a": 7.357417264053911,
            "b": 7.357417264053911,
            "c": 7.357417264053911,
            "alpha": 146.7974765984667,
            "beta": 146.7974765984667,
            "gamma": 47.66374502768564,
            "volume": 118.95446314450447
        },
        "sites": [
            {
                "species": [
                    {
                        "element": "Ba",
                        "occu": 1
                    }
                ],
                "abc": [
                    0.64732626,
                    0.64732626,
                    0.0
                ],
                "xyz": [
                    0.0,
                    0.0,
                    8.713124599283724
                ],
                "label": "Ba",
                "properties": {}
            },
            {
                "species": [
                    {
                        "element": "Ba",
                        "occu": 1
                    }
                ],
                "abc": [
                    0.35267374,
                    0.35267374,
                    0.0
                ],
                "xyz": [
                    0.0,
                    0.0,
                    4.747050180716277
                ],
                "label": "Ba",
                "properties": {}
            },
            {
                "species": [
                    {
                        "element": "Zr",
                        "occu": 1
                    }
                ],
                "abc": [
                    0.0,
                    0.0,
                    0.0
                ],
                "xyz": [
                    0.0,
                    0.0,
                    0.0
                ],
                "label": "Zr",
                "properties": {}
            },
            {
                "species": [
                    {
                        "element": "O",
                        "occu": 1
                    }
                ],
                "abc": [
                    0.84176949,
                    0.84176949,
                    0.0
                ],
                "xyz": [
                    0.0,
                    0.0,
                    11.330364459871461
                ],
                "label": "O",
                "properties": {}
            },
            {
                "species": [
                    {
                        "element": "O",
                        "occu": 1
                    }
                ],
                "abc": [
                    0.15823051,
                    0.15823051,
                    0.0
                ],
                "xyz": [
                    0.0,
                    0.0,
                    2.1298103201285374
                ],
                "label": "O",
                "properties": {}
            },
            {
                "species": [
                    {
                        "element": "O",
                        "occu": 1
                    }
                ],
                "abc": [
                    0.5,
                    0.0,
                    0.5
                ],
                "xyz": [
                    0.0,
                    2.10208379,
                    0.0
                ],
                "label": "O",
                "properties": {}
            },
            {
                "species": [
                    {
                        "element": "O",
                        "occu": 1
                    }
                ],
                "abc": [
                    0.0,
                    0.5,
                    0.5
                ],
                "xyz": [
                    2.10208379,
                    0.0,
                    0.0
                ],
                "label": "O",
                "properties": {}
            }
        ]
    },
    "spacegroup": {
        "source": "spglib",
        "symbol": "I4/mmm",
        "number": 139,
        "point_group": "4/mmm",
        "crystal_system": "tetragonal",
        "hall": "-I 4 2"
    },
    "dielectric": {
        "epsilon_ionic": [
            [
                33.33100673,
                -0.0,
                -0.0
            ],
            [
                -0.0,
                33.33065841,
                0.0
            ],
            [
                -0.0,
                0.0,
                13.02599904
            ]
        ],
        "epsilon_ionic_avg": 26.562554726666665,
        "epsilon_ionic_eig": [
            33.33100673,
            33.33065841,
            13.02599904
        ],
        "epsilon_electronic": [
            [
                4.36466432,
                0.0,
                0.0
            ],
            [
                0.0,
                4.36466432,
                0.0
            ],
            [
                0.0,
                -0.0,
                4.54206964
            ]
        ],
        "epsilon_electronic_avg": 4.423799426666666,
        "epsilon_electronic_eig": [
            4.36466432,
            4.36466432,
            4.54206964
        ]
    },
    "phonon": {
        "lowest_freq": -0.0253927154566028,
        "frequency": [
            -0.0253927154566028,
            -0.016087191594226124,
            -0.016087191594226124,
            2.377280303389757,
            2.377280303389757,
            2.9030762736750533,
            2.9030762736750533,
            4.5618856489258315,
            4.66246358361868,
            5.140471347203961,
            5.140471347203961,
            6.120940353968396,
            6.120940353968396,
            7.123886125034842,
            7.123886125034842,
            7.150350621277257,
            9.876525078469742,
            13.05093492281776,
            15.849692530601619,
            16.686361518583343,
            16.686361518583343
        ]
    },
    "born_effective_charge": {
        "avg_abs_trace": 3.047632857142857,
        "tensors": [
            [
                [
                    2.50727,
                    0.0,
                    -2e-05
                ],
                [
                    0.0,
                    2.50726,
                    -0.0001
                ],
                [
                    0.0,
                    0.0,
                    2.96303
                ]
            ],
            [
                [
                    2.50727,
                    -0.0,
                    2e-05
                ],
                [
                    -0.0,
                    2.50726,
                    0.0001
                ],
                [
                    -0.0,
                    -0.0,
                    2.96311
                ]
            ],
            [
                [
                    5.52937,
                    0.0,
                    -0.0
                ],
                [
                    0.0,
                    5.52932,
                    -0.0
                ],
                [
                    0.0,
                    0.0,
                    4.98626
                ]
            ],
            [
                [
                    -2.10084,
                    -0.0,
                    -8e-05
                ],
                [
                    0.0,
                    -2.10083,
                    0.00011
                ],
                [
                    0.0,
                    0.0,
                    -3.65068
                ]
            ],
            [
                [
                    -2.10084,
                    -0.0,
                    8e-05
                ],
                [
                    -0.0,
                    -2.10083,
                    -0.00011
                ],
                [
                    -0.0,
                    -0.0,
                    -3.65071
                ]
            ],
            [
                [
                    -2.01792,
                    0.0,
                    -0.0
                ],
                [
                    0.0,
                    -4.32429,
                    -0.0
                ],
                [
                    0.0,
                    0.0,
                    -1.80551
                ]
            ],
            [
                [
                    -4.32429,
                    0.0,
                    -0.0
                ],
                [
                    0.0,
                    -2.01789,
                    -0.0
                ],
                [
                    0.0,
                    0.0,
                    -1.80551
                ]
            ]
        ]
    },
    "band_gap": 3.4063000000000003,
    "is_direct": false,
    "formula": "Ba2ZrO4"
}