{
    "mp_id": "mp-8727",
    "nelements": 3,
    "nsites": 22,
    "elements": [
        "Ba",
        "O",
        "Pt"
    ],
    "structure": {
        "@module": "pymatgen.core.structure",
        "@class": "Structure",
        "charge": null,
        "lattice": {
            "matrix": [
                [
                    5.09919903,
                    2.94402363,
                    4.22428708
                ],
                [
                    -5.09919903,
                    2.94402363,
                    4.22428708
                ],
                [
                    0.0,
                    -5.88804827,
                    4.22428708
                ]
            ],
            "a": 7.246634199116597,
            "b": 7.246634199116597,
            "c": 7.246634650933143,
            "alpha": 89.44349652148026,
            "beta": 89.44349652148026,
            "gamma": 89.44349907500883,
            "volume": 380.49414649996186
        },
        "sites": [
            {
                "species": [
                    {
                        "element": "Ba",
                        "occu": 1
                    }
                ],
                "abc": [
                    0.25,
                    0.25,
                    0.25
                ],
                "xyz": [
                    0.0,
                    -2.525000000197508e-07,
                    3.16821531
                ],
                "label": "Ba",
                "properties": {}
            },
            {
                "species": [
                    {
                        "element": "Ba",
                        "occu": 1
                    }
                ],
                "abc": [
                    0.75,
                    0.75,
                    0.75
                ],
                "xyz": [
                    0.0,
                    -7.575000005033417e-07,
                    9.504645929999999
                ],
                "label": "Ba",
                "properties": {}
            },
            {
                "species": [
                    {
                        "element": "Ba",
                        "occu": 1
                    }
                ],
                "abc": [
                    0.11775727,
                    0.75,
                    0.38224273
                ],
                "xyz": [
                    -3.223931515540552,
                    0.30403426288771307,
                    5.28035885
                ],
                "label": "Ba",
                "properties": {}
            },
            {
                "species": [
                    {
                        "element": "Ba",
                        "occu": 1
                    }
                ],
                "abc": [
                    0.75,
                    0.38224273,
                    0.11775727
                ],
                "xyz": [
                    1.8752675144594482,
                    2.6399888621122862,
                    5.28035885
                ],
                "label": "Ba",
                "properties": {}
            },
            {
                "species": [
                    {
                        "element": "Ba",
                        "occu": 1
                    }
                ],
                "abc": [
                    0.38224273,
                    0.11775727,
                    0.75
                ],
                "xyz": [
                    1.3486640010811037,
                    -2.9440243875000003,
                    5.28035885
                ],
                "label": "Ba",
                "properties": {}
            },
            {
                "species": [
                    {
                        "element": "Ba",
                        "occu": 1
                    }
                ],
                "abc": [
                    0.88224273,
                    0.25,
                    0.61775727
                ],
                "xyz": [
                    3.223931515540552,
                    -0.30403527288771315,
                    7.39250239
                ],
                "label": "Ba",
                "properties": {}
            },
            {
                "species": [
                    {
                        "element": "Ba",
                        "occu": 1
                    }
                ],
                "abc": [
                    0.25,
                    0.61775727,
                    0.88224273
                ],
                "xyz": [
                    -1.8752675144594482,
                    -2.6399898721122868,
                    7.39250239
                ],
                "label": "Ba",
                "properties": {}
            },
            {
                "species": [
                    {
                        "element": "Ba",
                        "occu": 1
                    }
                ],
                "abc": [
                    0.61775727,
                    0.88224273,
                    0.25
                ],
                "xyz": [
                    -1.348664001081104,
                    2.9440233774999998,
                    7.39250239
                ],
                "label": "Ba",
                "properties": {}
            },
            {
                "species": [
                    {
                        "element": "Pt",
                        "occu": 1
                    }
                ],
                "abc": [
                    0.0,
                    0.0,
                    0.0
                ],
                "xyz": [
                    0.0,
                    0.0,
                    0.0
                ],
                "label": "Pt",
                "properties": {}
            },
            {
                "species": [
                    {
                        "element": "Pt",
                        "occu": 1
                    }
                ],
                "abc": [
                    0.5,
                    0.5,
                    0.5
                ],
                "xyz": [
                    0.0,
                    -5.050000000395016e-07,
                    6.33643062
                ],
                "label": "Pt",
                "properties": {}
            },
            {
                "species": [
                    {
                        "element": "O",
                        "occu": 1
                    }
                ],
                "abc": [
                    0.7699577,
                    0.57359276,
                    0.43792523
                ],
                "xyz": [
                    1.0013039115740079,
                    1.3769194094465176,
                    7.525464740601085
                ],
                "label": "O",
                "properties": {}
            },
            {
                "species": [
                    {
                        "element": "O",
                        "occu": 1
                    }
                ],
                "abc": [
                    0.57359276,
                    0.43792523,
                    0.7699577
                ],
                "xyz": [
                    0.691795737378496,
                    -1.555615238728075,
                    7.525464740601086
                ],
                "label": "O",
                "properties": {}
            },
            {
                "species": [
                    {
                        "element": "O",
                        "occu": 1
                    }
                ],
                "abc": [
                    0.43792523,
                    0.7699577,
                    0.57359276
                ],
                "xyz": [
                    -1.6930996489525039,
                    0.17869402999111017,
                    7.525464740601086
                ],
                "label": "O",
                "properties": {}
            },
            {
                "species": [
                    {
                        "element": "O",
                        "occu": 1
                    }
                ],
                "abc": [
                    0.06207477,
                    0.92640724,
                    0.7300423
                ],
                "xyz": [
                    -4.407403292621504,
                    -1.3884099062719253,
                    7.259540039398914
                ],
                "label": "O",
                "properties": {}
            },
            {
                "species": [
                    {
                        "element": "O",
                        "occu": 1
                    }
                ],
                "abc": [
                    0.92640724,
                    0.7300423,
                    0.06207477
                ],
                "xyz": [
                    1.0013039115740083,
                    4.511127345553482,
                    7.259540039398915
                ],
                "label": "O",
                "properties": {}
            },
            {
                "species": [
                    {
                        "element": "O",
                        "occu": 1
                    }
                ],
                "abc": [
                    0.7300423,
                    0.06207477,
                    0.92640724
                ],
                "xyz": [
                    3.4060993810474964,
                    -3.1227191749911105,
                    7.259540039398914
                ],
                "label": "O",
                "properties": {}
            },
            {
                "species": [
                    {
                        "element": "O",
                        "occu": 1
                    }
                ],
                "abc": [
                    0.2300423,
                    0.42640724,
                    0.56207477
                ],
                "xyz": [
                    -1.0013039115740086,
                    -1.3769204194465172,
                    5.147396499398914
                ],
                "label": "O",
                "properties": {}
            },
            {
                "species": [
                    {
                        "element": "O",
                        "occu": 1
                    }
                ],
                "abc": [
                    0.42640724,
                    0.56207477,
                    0.2300423
                ],
                "xyz": [
                    -0.6917957373784955,
                    1.555614228728075,
                    5.147396499398915
                ],
                "label": "O",
                "properties": {}
            },
            {
                "species": [
                    {
                        "element": "O",
                        "occu": 1
                    }
                ],
                "abc": [
                    0.56207477,
                    0.2300423,
                    0.42640724
                ],
                "xyz": [
                    1.693099648952504,
                    -0.1786950399911107,
                    5.147396499398914
                ],
                "label": "O",
                "properties": {}
            },
            {
                "species": [
                    {
                        "element": "O",
                        "occu": 1
                    }
                ],
                "abc": [
                    0.93792523,
                    0.07359276,
                    0.2699577
                ],
                "xyz": [
                    4.407403292621505,
                    1.3884088962719245,
                    5.413321200601086
                ],
                "label": "O",
                "properties": {}
            },
            {
                "species": [
                    {
                        "element": "O",
                        "occu": 1
                    }
                ],
                "abc": [
                    0.2699577,
                    0.93792523,
                    0.07359276
                ],
                "xyz": [
                    -3.406099381047497,
                    3.122718164991111,
                    5.413321200601085
                ],
                "label": "O",
                "properties": {}
            },
            {
                "species": [
                    {
                        "element": "O",
                        "occu": 1
                    }
                ],
                "abc": [
                    0.07359276,
                    0.2699577,
                    0.93792523
                ],
                "xyz": [
                    -1.0013039115740083,
                    -4.511128355553482,
                    5.413321200601086
                ],
                "label": "O",
                "properties": {}
            }
        ]
    },
    "spacegroup": {
        "source": "spglib",
        "symbol": "R-3c",
        "number": 167,
        "point_group": "-3m",
        "crystal_system": "trigonal",
        "hall": "-R 3 2\"c"
    },
    "dielectric": {
        "epsilon_ionic": [
            [
                12.57446646,
                -0.0,
                -3e-08
            ],
            [
                -0.0,
                12.57444657,
                7.63e-06
            ],
            [
                -3e-08,
                7.63e-06,
                12.12772525
            ]
        ],
        "epsilon_ionic_avg": 12.425546093333333,
        "epsilon_ionic_eig": [
            12.127725249869675,
            12.574466460000005,
            12.574446570130318
        ],
        "epsilon_electronic": [
            [
                4.87728458,
                -0.0,
                0.0
            ],
            [
                0.0,
                4.87728486,
                -0.0
            ],
            [
                -0.0,
                -0.0,
                5.14534995
            ]
        ],
        "epsilon_electronic_avg": 4.966639796666667,
        "epsilon_electronic_eig": [
            4.87728458,
            4.87728486,
            5.14534995
        ]
    },
    "phonon": {
        "lowest_freq": -0.017718596966184736,
        "frequency": [
            -0.017718596966184736,
            -0.016441410078374668,
            -0.016441409632427267,
            1.6670759077048412,
            1.6670759370256572,
            2.3866270101020532,
            2.3866270101020532,
            2.422746538786167,
            2.4741619556832077,
            2.474161960622257,
            2.495319962780374,
            2.8082732435030473,
            2.866312383428933,
            2.8746622458812863,
            2.874662313896269,
            3.4228632910025896,
            3.4228633766852856,
            3.457277298501669,
            3.559860228236416,
            3.559860314054437,
            3.618493283523858,
            3.6659083078108474,
            3.6659083844794726,
            3.908214742739287,
            4.1551897519665495,
            4.155189784316472,
            4.335116203419771,
            4.3351162541589225,
            5.055841747227219,
            5.173973666926073,
            5.712743989512729,
            6.391041775683061,
            7.159620595152554,
            7.15962062928846,
            8.14219616471651,
            8.142196194732998,
            8.260920428786417,
            8.807734821442796,
            8.8077348769395,
            8.96871872767302,
            9.463730884835384,
            9.463730910660306,
            9.47499451449428,
            9.474994527391393,
            10.26298753937393,
            10.701339420176438,
            10.701339431595576,
            10.835422161958073,
            10.989024979010146,
            10.989024990130337,
            11.154647160258078,
            11.154647160258078,
            11.820287093429533,
            12.383562141609548,
            12.383562319232201,
            12.540038421051877,
            12.74708823264704,
            13.45074322990647,
            13.770886865208414,
            13.770887095927156,
            13.968097546982687,
            13.96809757322822,
            14.286303857117103,
            14.286303874224407,
            14.823815183503651,
            15.205969738328541
        ]
    },
    "born_effective_charge": {
        "avg_abs_trace": 2.411391666666667,
        "tensors": [
            [
                [
                    1.83726,
                    0.0,
                    -0.0
                ],
                [
                    0.00021,
                    1.8373,
                    1e-05
                ],
                [
                    -0.0,
                    0.0,
                    4.77122
                ]
            ],
            [
                [
                    1.83734,
                    0.0,
                    -0.0
                ],
                [
                    -0.00021,
                    1.8373,
                    1e-05
                ],
                [
                    -0.0,
                    0.0,
                    4.77122
                ]
            ],
            [
                [
                    3.12606,
                    -0.31101,
                    0.6269
                ],
                [
                    -0.31099,
                    2.76687,
                    -0.3619
                ],
                [
                    0.49664,
                    -0.28675,
                    2.50905
                ]
            ],
            [
                [
                    3.12606,
                    0.31101,
                    -0.6269
                ],
                [
                    0.31108,
                    2.76684,
                    -0.36208
                ],
                [
                    -0.49665,
                    -0.28672,
                    2.50905
                ]
            ],
            [
                [
                    2.58728,
                    0.0,
                    -0.0
                ],
                [
                    -1e-05,
                    3.30559,
                    0.72398
                ],
                [
                    2e-05,
                    0.57348,
                    2.50905
                ]
            ],
            [
                [
                    3.12596,
                    -0.31104,
                    0.62707
                ],
                [
                    -0.31108,
                    2.76684,
                    -0.36208
                ],
                [
                    0.49665,
                    -0.28672,
                    2.50905
                ]
            ],
            [
                [
                    3.12596,
                    0.31104,
                    -0.62707
                ],
                [
                    0.31099,
                    2.76687,
                    -0.3619
                ],
                [
                    -0.49664,
                    -0.28675,
                    2.50905
                ]
            ],
            [
                [
                    2.58731,
                    0.0,
                    -0.0
                ],
                [
                    1e-05,
                    3.30559,
                    0.72398
                ],
                [
                    -2e-05,
                    0.57348,
                    2.50905
                ]
            ],
            [
                [
                    2.03057,
                    -0.01758,
                    -0.0
                ],
                [
                    0.01759,
                    2.03057,
                    -1e-05
                ],
                [
                    -0.0,
                    0.0,
                    2.07524
                ]
            ],
            [
                [
                    2.03057,
                    0.01758,
                    0.0
                ],
                [
                    -0.01759,
                    2.03057,
                    -1e-05
                ],
                [
                    -0.0,
                    0.0,
                    2.07524
                ]
            ],
            [
                [
                    -1.95652,
                    -0.38128,
                    -0.30634
                ],
                [
                    -0.42178,
                    -2.27928,
                    -0.49544
                ],
                [
                    -0.3027,
                    -0.42657,
                    -2.39557
                ]
            ],
            [
                [
                    -1.85073,
                    0.36067,
                    -0.27589
                ],
                [
                    0.32062,
                    -2.38482,
                    0.51295
                ],
                [
                    -0.21807,
                    0.47543,
                    -2.39557
                ]
            ],
            [
                [
                    -2.54621,
                    0.08102,
                    0.5821
                ],
                [
                    0.04084,
                    -1.68934,
                    -0.01764
                ],
                [
                    0.52077,
                    -0.04886,
                    -2.39557
                ]
            ],
            [
                [
                    -1.85073,
                    -0.36067,
                    0.27589
                ],
                [
                    -0.32019,
                    -2.38513,
                    0.51304
                ],
                [
                    0.21784,
                    0.47548,
                    -2.39564
                ]
            ],
            [
                [
                    -1.95652,
                    0.38128,
                    0.30634
                ],
                [
                    0.4217,
                    -2.27919,
                    -0.4953
                ],
                [
                    0.30286,
                    -0.4264,
                    -2.39564
                ]
            ],
            [
                [
                    -2.54621,
                    -0.08102,
                    -0.5821
                ],
                [
                    -0.04103,
                    -1.68941,
                    -0.0176
                ],
                [
                    -0.5207,
                    -0.04909,
                    -2.39564
                ]
            ],
            [
                [
                    -1.95647,
                    -0.38169,
                    -0.30637
                ],
                [
                    -0.4217,
                    -2.27919,
                    -0.4953
                ],
                [
                    -0.30286,
                    -0.4264,
                    -2.39564
                ]
            ],
            [
                [
                    -1.85074,
                    0.36069,
                    -0.27578
                ],
                [
                    0.32019,
                    -2.38513,
                    0.51304
                ],
                [
                    -0.21784,
                    0.47548,
                    -2.39564
                ]
            ],
            [
                [
                    -2.54649,
                    0.08136,
                    0.58227
                ],
                [
                    0.04103,
                    -1.68941,
                    -0.0176
                ],
                [
                    0.5207,
                    -0.04909,
                    -2.39564
                ]
            ],
            [
                [
                    -1.85074,
                    -0.36069,
                    0.27578
                ],
                [
                    -0.32062,
                    -2.38482,
                    0.51295
                ],
                [
                    0.21807,
                    0.47543,
                    -2.39557
                ]
            ],
            [
                [
                    -2.54649,
                    -0.08136,
                    -0.58227
                ],
                [
                    -0.04084,
                    -1.68934,
                    -0.01764
                ],
                [
                    -0.52077,
                    -0.04886,
                    -2.39557
                ]
            ],
            [
                [
                    -1.95647,
                    0.38169,
                    0.30637
                ],
                [
                    0.42178,
                    -2.27928,
                    -0.49544
                ],
                [
                    0.3027,
                    -0.42657,
                    -2.39557
                ]
            ]
        ]
    },
    "band_gap": 1.9817999999999998,
    "is_direct": false,
    "formula": "Ba4PtO6"
}