{
    "mp_id": "mp-8809",
    "nelements": 4,
    "nsites": 18,
    "elements": [
        "Ba",
        "La",
        "O",
        "Pt"
    ],
    "structure": {
        "@module": "pymatgen.core.structure",
        "@class": "Structure",
        "charge": null,
        "lattice": {
            "matrix": [
                [
                    6.84027071,
                    0.0,
                    0.0
                ],
                [
                    0.0,
                    6.84027071,
                    0.0
                ],
                [
                    0.0,
                    0.0,
                    5.89621279
                ]
            ],
            "a": 6.84027071,
            "b": 6.84027071,
            "c": 5.89621279,
            "alpha": 90.0,
            "beta": 90.0,
            "gamma": 90.0,
            "volume": 275.87968906021825
        },
        "sites": [
            {
                "species": [
                    {
                        "element": "Ba",
                        "occu": 1
                    }
                ],
                "abc": [
                    0.0,
                    0.0,
                    0.0
                ],
                "xyz": [
                    0.0,
                    0.0,
                    0.0
                ],
                "label": "Ba",
                "properties": {}
            },
            {
                "species": [
                    {
                        "element": "Ba",
                        "occu": 1
                    }
                ],
                "abc": [
                    0.5,
                    0.5,
                    0.0
                ],
                "xyz": [
                    3.420135355,
                    3.420135355,
                    0.0
                ],
                "label": "Ba",
                "properties": {}
            },
            {
                "species": [
                    {
                        "element": "La",
                        "occu": 1
                    }
                ],
                "abc": [
                    0.67506549,
                    0.82493451,
                    0.5
                ],
                "xyz": [
                    4.6176306985787985,
                    5.642775366421202,
                    2.948106395
                ],
                "label": "La",
                "properties": {}
            },
            {
                "species": [
                    {
                        "element": "La",
                        "occu": 1
                    }
                ],
                "abc": [
                    0.17506549,
                    0.67506549,
                    0.5
                ],
                "xyz": [
                    1.1974953435787978,
                    4.6176306985787985,
                    2.948106395
                ],
                "label": "La",
                "properties": {}
            },
            {
                "species": [
                    {
                        "element": "La",
                        "occu": 1
                    }
                ],
                "abc": [
                    0.82493451,
                    0.32493451,
                    0.5
                ],
                "xyz": [
                    5.642775366421202,
                    2.2226400114212024,
                    2.948106395
                ],
                "label": "La",
                "properties": {}
            },
            {
                "species": [
                    {
                        "element": "La",
                        "occu": 1
                    }
                ],
                "abc": [
                    0.32493451,
                    0.17506549,
                    0.5
                ],
                "xyz": [
                    2.2226400114212024,
                    1.1974953435787978,
                    2.948106395
                ],
                "label": "La",
                "properties": {}
            },
            {
                "species": [
                    {
                        "element": "Pt",
                        "occu": 1
                    }
                ],
                "abc": [
                    0.0,
                    0.5,
                    0.0
                ],
                "xyz": [
                    0.0,
                    3.420135355,
                    0.0
                ],
                "label": "Pt",
                "properties": {}
            },
            {
                "species": [
                    {
                        "element": "Pt",
                        "occu": 1
                    }
                ],
                "abc": [
                    0.5,
                    0.0,
                    0.0
                ],
                "xyz": [
                    3.420135355,
                    0.0,
                    0.0
                ],
                "label": "Pt",
                "properties": {}
            },
            {
                "species": [
                    {
                        "element": "O",
                        "occu": 1
                    }
                ],
                "abc": [
                    0.5,
                    0.5,
                    0.5
                ],
                "xyz": [
                    3.420135355,
                    3.420135355,
                    2.948106395
                ],
                "label": "O",
                "properties": {}
            },
            {
                "species": [
                    {
                        "element": "O",
                        "occu": 1
                    }
                ],
                "abc": [
                    0.0,
                    0.0,
                    0.5
                ],
                "xyz": [
                    0.0,
                    0.0,
                    2.948106395
                ],
                "label": "O",
                "properties": {}
            },
            {
                "species": [
                    {
                        "element": "O",
                        "occu": 1
                    }
                ],
                "abc": [
                    0.64183239,
                    0.14183239,
                    0.24614588
                ],
                "xyz": [
                    4.390307298046297,
                    0.970171943046297,
                    1.4513284858618052
                ],
                "label": "O",
                "properties": {}
            },
            {
                "species": [
                    {
                        "element": "O",
                        "occu": 1
                    }
                ],
                "abc": [
                    0.35816761,
                    0.85816761,
                    0.24614588
                ],
                "xyz": [
                    2.4499634119537035,
                    5.870098766953704,
                    1.4513284858618052
                ],
                "label": "O",
                "properties": {}
            },
            {
                "species": [
                    {
                        "element": "O",
                        "occu": 1
                    }
                ],
                "abc": [
                    0.14183239,
                    0.35816761,
                    0.24614588
                ],
                "xyz": [
                    0.970171943046297,
                    2.4499634119537035,
                    1.4513284858618052
                ],
                "label": "O",
                "properties": {}
            },
            {
                "species": [
                    {
                        "element": "O",
                        "occu": 1
                    }
                ],
                "abc": [
                    0.85816761,
                    0.64183239,
                    0.24614588
                ],
                "xyz": [
                    5.870098766953704,
                    4.390307298046297,
                    1.4513284858618052
                ],
                "label": "O",
                "properties": {}
            },
            {
                "species": [
                    {
                        "element": "O",
                        "occu": 1
                    }
                ],
                "abc": [
                    0.64183239,
                    0.14183239,
                    0.75385412
                ],
                "xyz": [
                    4.390307298046297,
                    0.970171943046297,
                    4.444884304138195
                ],
                "label": "O",
                "properties": {}
            },
            {
                "species": [
                    {
                        "element": "O",
                        "occu": 1
                    }
                ],
                "abc": [
                    0.85816761,
                    0.64183239,
                    0.75385412
                ],
                "xyz": [
                    5.870098766953704,
                    4.390307298046297,
                    4.444884304138195
                ],
                "label": "O",
                "properties": {}
            },
            {
                "species": [
                    {
                        "element": "O",
                        "occu": 1
                    }
                ],
                "abc": [
                    0.35816761,
                    0.85816761,
                    0.75385412
                ],
                "xyz": [
                    2.4499634119537035,
                    5.870098766953704,
                    4.444884304138195
                ],
                "label": "O",
                "properties": {}
            },
            {
                "species": [
                    {
                        "element": "O",
                        "occu": 1
                    }
                ],
                "abc": [
                    0.14183239,
                    0.35816761,
                    0.75385412
                ],
                "xyz": [
                    0.970171943046297,
                    2.4499634119537035,
                    4.444884304138195
                ],
                "label": "O",
                "properties": {}
            }
        ]
    },
    "spacegroup": {
        "source": "spglib",
        "symbol": "P4/mbm",
        "number": 127,
        "point_group": "4/mmm",
        "crystal_system": "tetragonal",
        "hall": "-P 4 2ab"
    },
    "dielectric": {
        "epsilon_ionic": [
            [
                24.7543379,
                -3e-08,
                1e-08
            ],
            [
                -3e-08,
                24.72183772,
                -1e-08
            ],
            [
                1e-08,
                -1e-08,
                18.60691289
            ]
        ],
        "epsilon_ionic_avg": 22.69436283666667,
        "epsilon_ionic_eig": [
            24.754337900000028,
            24.72183771999998,
            18.60691289
        ],
        "epsilon_electronic": [
            [
                5.50731693,
                0.0,
                0.0
            ],
            [
                0.0,
                5.50731693,
                0.0
            ],
            [
                0.0,
                0.0,
                5.80908791
            ]
        ],
        "epsilon_electronic_avg": 5.607907256666667,
        "epsilon_electronic_eig": [
            5.50731693,
            5.50731693,
            5.80908791
        ]
    },
    "phonon": {
        "lowest_freq": -0.04929268418463973,
        "frequency": [
            -0.04929268418463973,
            -0.04929268418463973,
            -0.02408875518776638,
            2.2432680720485094,
            2.334647789527019,
            2.334647789527019,
            2.473201079660499,
            2.489713888369981,
            2.489713888369981,
            2.503886783990066,
            2.8272161130872004,
            2.8272161130872004,
            3.162744894525604,
            3.4863131272721173,
            3.4863131272721173,
            3.825937819596572,
            3.825937819596572,
            3.9398522285945337,
            4.146621230350832,
            4.476680725710423,
            4.821149479402238,
            5.196022526298011,
            5.196022526298011,
            5.2616273918554555,
            5.395818139796689,
            5.395818139796689,
            5.986619472516748,
            6.466771920652097,
            6.466771920652097,
            6.593257610349172,
            6.593257610349172,
            6.954767260356628,
            7.267150414648764,
            7.414952282924251,
            7.972081912113074,
            8.828127508087396,
            8.828127508087396,
            9.501847019928013,
            9.671235088659643,
            9.671235088659643,
            9.674640491488452,
            9.718350630007766,
            9.98578001677197,
            10.419831710663816,
            11.669286752932944,
            11.669286752932944,
            17.059079056510242,
            17.217729829699024,
            18.767813429908355,
            18.767813429908355,
            19.1862293447002,
            19.1862293447002,
            20.439161565998894,
            20.767470085106336
        ]
    },
    "born_effective_charge": {
        "avg_abs_trace": 2.7808362962962963,
        "tensors": [
            [
                [
                    2.96344,
                    -0.07061,
                    0.0
                ],
                [
                    0.07093,
                    2.95984,
                    -0.0
                ],
                [
                    0.0,
                    0.0,
                    2.732
                ]
            ],
            [
                [
                    2.96344,
                    0.07061,
                    0.0
                ],
                [
                    -0.07093,
                    2.95984,
                    -0.0
                ],
                [
                    0.0,
                    0.0,
                    2.732
                ]
            ],
            [
                [
                    4.50298,
                    -0.48028,
                    0.0
                ],
                [
                    -0.48289,
                    4.50183,
                    -0.0
                ],
                [
                    7e-05,
                    -7e-05,
                    4.3386
                ]
            ],
            [
                [
                    4.50298,
                    0.48028,
                    0.0
                ],
                [
                    0.48276,
                    4.50174,
                    -0.0
                ],
                [
                    7e-05,
                    7e-05,
                    4.3386
                ]
            ],
            [
                [
                    4.50296,
                    0.47989,
                    0.0
                ],
                [
                    0.48289,
                    4.50183,
                    -0.0
                ],
                [
                    -7e-05,
                    -7e-05,
                    4.3386
                ]
            ],
            [
                [
                    4.50296,
                    -0.47989,
                    0.0
                ],
                [
                    -0.48276,
                    4.50174,
                    -0.0
                ],
                [
                    -7e-05,
                    7e-05,
                    4.3386
                ]
            ],
            [
                [
                    0.11409,
                    -1.26298,
                    0.0
                ],
                [
                    -1.2637,
                    0.11382,
                    -0.0
                ],
                [
                    0.0,
                    0.0,
                    1.97138
                ]
            ],
            [
                [
                    0.11409,
                    1.26298,
                    0.0
                ],
                [
                    1.2637,
                    0.11382,
                    -0.0
                ],
                [
                    -0.0,
                    0.0,
                    1.97138
                ]
            ],
            [
                [
                    -3.17913,
                    -0.35482,
                    0.0
                ],
                [
                    0.35426,
                    -3.17716,
                    -0.0
                ],
                [
                    0.0,
                    0.0,
                    -2.09529
                ]
            ],
            [
                [
                    -3.17913,
                    0.35482,
                    0.0
                ],
                [
                    -0.35426,
                    -3.17716,
                    -0.0
                ],
                [
                    -0.0,
                    0.0,
                    -2.09529
                ]
            ],
            [
                [
                    -2.2261,
                    -0.44079,
                    -0.50952
                ],
                [
                    -0.44144,
                    -2.22513,
                    -0.50962
                ],
                [
                    -0.73216,
                    -0.73216,
                    -2.82111
                ]
            ],
            [
                [
                    -2.22608,
                    -0.44108,
                    0.50968
                ],
                [
                    -0.44149,
                    -2.2249,
                    0.50971
                ],
                [
                    0.73216,
                    0.73216,
                    -2.82111
                ]
            ],
            [
                [
                    -2.2261,
                    0.44079,
                    -0.50952
                ],
                [
                    0.44149,
                    -2.2249,
                    0.50971
                ],
                [
                    -0.73216,
                    0.73216,
                    -2.82111
                ]
            ],
            [
                [
                    -2.22608,
                    0.44108,
                    0.50968
                ],
                [
                    0.44144,
                    -2.22513,
                    -0.50962
                ],
                [
                    0.73216,
                    -0.73216,
                    -2.82111
                ]
            ],
            [
                [
                    -2.2261,
                    -0.44079,
                    0.50952
                ],
                [
                    -0.44144,
                    -2.22513,
                    0.50962
                ],
                [
                    0.73257,
                    0.73257,
                    -2.82154
                ]
            ],
            [
                [
                    -2.22608,
                    0.44108,
                    -0.50968
                ],
                [
                    0.44144,
                    -2.22513,
                    0.50962
                ],
                [
                    -0.73257,
                    0.73257,
                    -2.82154
                ]
            ],
            [
                [
                    -2.22608,
                    -0.44108,
                    -0.50968
                ],
                [
                    -0.44149,
                    -2.2249,
                    -0.50971
                ],
                [
                    -0.73257,
                    -0.73257,
                    -2.82154
                ]
            ],
            [
                [
                    -2.2261,
                    0.44079,
                    0.50952
                ],
                [
                    0.44149,
                    -2.2249,
                    -0.50971
                ],
                [
                    0.73257,
                    -0.73257,
                    -2.82154
                ]
            ]
        ]
    },
    "band_gap": 2.7471000000000005,
    "is_direct": false,
    "formula": "BaLa2PtO5"
}