{
    "mp_id": "mp-8603",
    "nelements": 3,
    "nsites": 12,
    "elements": [
        "Ag",
        "O",
        "Rb"
    ],
    "structure": {
        "@module": "pymatgen.core.structure",
        "@class": "Structure",
        "charge": null,
        "lattice": {
            "matrix": [
                [
                    -4.97259651,
                    4.97259651,
                    2.87985567
                ],
                [
                    4.97259651,
                    -4.97259651,
                    2.87985567
                ],
                [
                    4.97259651,
                    4.97259651,
                    -2.87985567
                ]
            ],
            "a": 7.599144740203301,
            "b": 7.599144740203301,
            "c": 7.599144740203301,
            "alpha": 98.25731889165168,
            "beta": 98.25731889165168,
            "gamma": 135.46007974948532,
            "volume": 284.83749368285265
        },
        "sites": [
            {
                "species": [
                    {
                        "element": "Rb",
                        "occu": 1
                    }
                ],
                "abc": [
                    0.5,
                    0.81465858,
                    0.31465858
                ],
                "xyz": [
                    3.129340313499111,
                    2.220446049250313e-16,
                    2.87985567
                ],
                "label": "Rb",
                "properties": {}
            },
            {
                "species": [
                    {
                        "element": "Rb",
                        "occu": 1
                    }
                ],
                "abc": [
                    0.18534142,
                    0.5,
                    0.68534142
                ],
                "xyz": [
                    4.972596509999999,
                    1.8432561965008882,
                    0.0
                ],
                "label": "Rb",
                "properties": {}
            },
            {
                "species": [
                    {
                        "element": "Rb",
                        "occu": 1
                    }
                ],
                "abc": [
                    0.81465858,
                    0.5,
                    0.31465858
                ],
                "xyz": [
                    2.220446049250313e-16,
                    3.129340313499111,
                    2.87985567
                ],
                "label": "Rb",
                "properties": {}
            },
            {
                "species": [
                    {
                        "element": "Rb",
                        "occu": 1
                    }
                ],
                "abc": [
                    0.5,
                    0.18534142,
                    0.68534142
                ],
                "xyz": [
                    1.8432561965008882,
                    4.972596509999999,
                    0.0
                ],
                "label": "Rb",
                "properties": {}
            },
            {
                "species": [
                    {
                        "element": "Ag",
                        "occu": 1
                    }
                ],
                "abc": [
                    0.14332063,
                    0.14332063,
                    0.28664025
                ],
                "xyz": [
                    1.4253463067755274,
                    1.4253463067755274,
                    2.9086542268075277e-06
                ],
                "label": "Ag",
                "properties": {}
            },
            {
                "species": [
                    {
                        "element": "Ag",
                        "occu": 1
                    }
                ],
                "abc": [
                    0.85667937,
                    0.14332063,
                    0.0
                ],
                "xyz": [
                    -3.5472451809019976,
                    3.5472451809019976,
                    2.87985567
                ],
                "label": "Ag",
                "properties": {}
            },
            {
                "species": [
                    {
                        "element": "Ag",
                        "occu": 1
                    }
                ],
                "abc": [
                    0.14332063,
                    0.85667937,
                    0.0
                ],
                "xyz": [
                    3.5472451809019976,
                    -3.5472451809019976,
                    2.87985567
                ],
                "label": "Ag",
                "properties": {}
            },
            {
                "species": [
                    {
                        "element": "Ag",
                        "occu": 1
                    }
                ],
                "abc": [
                    0.85667937,
                    0.85667937,
                    0.71335975
                ],
                "xyz": [
                    3.5472502032244724,
                    3.5472502032244724,
                    2.8798527613457736
                ],
                "label": "Ag",
                "properties": {}
            },
            {
                "species": [
                    {
                        "element": "O",
                        "occu": 1
                    }
                ],
                "abc": [
                    0.28868774,
                    0.0,
                    0.28868774
                ],
                "xyz": [
                    0.0,
                    2.871055296807575,
                    0.0
                ],
                "label": "O",
                "properties": {}
            },
            {
                "species": [
                    {
                        "element": "O",
                        "occu": 1
                    }
                ],
                "abc": [
                    0.0,
                    0.28868774,
                    0.28868774
                ],
                "xyz": [
                    2.871055296807575,
                    0.0,
                    0.0
                ],
                "label": "O",
                "properties": {}
            },
            {
                "species": [
                    {
                        "element": "O",
                        "occu": 1
                    }
                ],
                "abc": [
                    0.0,
                    0.71131226,
                    0.71131226
                ],
                "xyz": [
                    7.074137723192425,
                    0.0,
                    0.0
                ],
                "label": "O",
                "properties": {}
            },
            {
                "species": [
                    {
                        "element": "O",
                        "occu": 1
                    }
                ],
                "abc": [
                    0.71131226,
                    0.0,
                    0.71131226
                ],
                "xyz": [
                    0.0,
                    7.074137723192425,
                    0.0
                ],
                "label": "O",
                "properties": {}
            }
        ]
    },
    "spacegroup": {
        "source": "spglib",
        "symbol": "I4/mmm",
        "number": 139,
        "point_group": "4/mmm",
        "crystal_system": "tetragonal",
        "hall": "-I 4 2"
    },
    "dielectric": {
        "epsilon_ionic": [
            [
                2.71568851,
                -2e-08,
                -1e-08
            ],
            [
                -2e-08,
                2.71569116,
                -0.0
            ],
            [
                -1e-08,
                -0.0,
                2.64151728
            ]
        ],
        "epsilon_ionic_avg": 2.6909656500000003,
        "epsilon_ionic_eig": [
            2.7156885098490657,
            2.7156911601509357,
            2.6415172799999986
        ],
        "epsilon_electronic": [
            [
                3.82262964,
                0.0,
                0.0
            ],
            [
                0.0,
                3.82262964,
                0.0
            ],
            [
                0.0,
                -0.0,
                3.07683961
            ]
        ],
        "epsilon_electronic_avg": 3.5740329633333334,
        "epsilon_electronic_eig": [
            3.82262964,
            3.82262964,
            3.07683961
        ]
    },
    "phonon": {
        "lowest_freq": -0.016895972971158718,
        "frequency": [
            -0.016895972971158718,
            -0.016895972971158718,
            -0.01284393433756235,
            1.1869380732291486,
            1.1869380732291486,
            1.563386744630743,
            1.7826918045488358,
            1.8075041504649192,
            2.1827869477719744,
            2.1827869477719744,
            2.4271450533562153,
            2.5467389537726213,
            2.733974501750946,
            2.776398701558013,
            2.776398701558013,
            2.849485034682144,
            2.849485034682144,
            2.921624749578882,
            2.949866321405028,
            2.9684962875856886,
            3.3207427614698175,
            3.614441688967869,
            4.042611338307458,
            4.042611338307458,
            4.8579950304498825,
            6.082582010389992,
            6.082582010389992,
            7.025190931778445,
            12.708001189544275,
            12.708001189544275,
            13.25124532690985,
            13.604695310424358,
            14.109503251618113,
            14.761223892730197,
            14.761223892730197,
            14.876967141900119
        ]
    },
    "born_effective_charge": {
        "avg_abs_trace": 1.1064311111111111,
        "tensors": [
            [
                [
                    1.00503,
                    0.0,
                    0.0
                ],
                [
                    -7e-05,
                    1.39378,
                    0.0
                ],
                [
                    5e-05,
                    0.0,
                    1.36221
                ]
            ],
            [
                [
                    1.39379,
                    0.00015,
                    -0.0
                ],
                [
                    0.0,
                    1.00521,
                    -0.0
                ],
                [
                    0.0,
                    -5e-05,
                    1.36221
                ]
            ],
            [
                [
                    1.39379,
                    -0.00015,
                    0.0
                ],
                [
                    0.0,
                    1.00504,
                    0.0
                ],
                [
                    0.0,
                    5e-05,
                    1.36221
                ]
            ],
            [
                [
                    1.00521,
                    0.0,
                    0.0
                ],
                [
                    7e-05,
                    1.39378,
                    0.0
                ],
                [
                    -5e-05,
                    0.0,
                    1.36221
                ]
            ],
            [
                [
                    0.73172,
                    -0.86541,
                    -0.0
                ],
                [
                    -0.86544,
                    0.73168,
                    -0.0
                ],
                [
                    1e-05,
                    1e-05,
                    -0.24565
                ]
            ],
            [
                [
                    0.73172,
                    0.86541,
                    0.0
                ],
                [
                    0.86533,
                    0.73179,
                    0.0
                ],
                [
                    1e-05,
                    -1e-05,
                    -0.24565
                ]
            ],
            [
                [
                    0.73176,
                    0.86539,
                    -0.0
                ],
                [
                    0.86544,
                    0.73168,
                    0.0
                ],
                [
                    -1e-05,
                    1e-05,
                    -0.24565
                ]
            ],
            [
                [
                    0.73176,
                    -0.86539,
                    -0.0
                ],
                [
                    -0.86533,
                    0.73179,
                    -0.0
                ],
                [
                    -1e-05,
                    -1e-05,
                    -0.24565
                ]
            ],
            [
                [
                    -1.90958,
                    -0.00023,
                    0.0
                ],
                [
                    0.0,
                    -1.95266,
                    -0.0
                ],
                [
                    0.0,
                    1e-05,
                    -1.11656
                ]
            ],
            [
                [
                    -1.9527,
                    0.0,
                    0.0
                ],
                [
                    -0.00011,
                    -1.90957,
                    0.0
                ],
                [
                    1e-05,
                    0.0,
                    -1.11656
                ]
            ],
            [
                [
                    -1.95291,
                    0.0,
                    -0.0
                ],
                [
                    0.00011,
                    -1.90957,
                    -0.0
                ],
                [
                    -1e-05,
                    -0.0,
                    -1.11656
                ]
            ],
            [
                [
                    -1.90958,
                    0.00023,
                    0.0
                ],
                [
                    -0.0,
                    -1.95294,
                    0.0
                ],
                [
                    -0.0,
                    -1e-05,
                    -1.11656
                ]
            ]
        ]
    },
    "band_gap": 1.6,
    "is_direct": true,
    "formula": "RbAgO"
}