{
    "mp_id": "mp-8957",
    "nelements": 3,
    "nsites": 22,
    "elements": [
        "Na",
        "O",
        "Ta"
    ],
    "structure": {
        "@module": "pymatgen.core.structure",
        "@class": "Structure",
        "charge": null,
        "lattice": {
            "matrix": [
                [
                    3.12820282,
                    -5.04205143,
                    -0.00020441
                ],
                [
                    3.12820282,
                    5.04205143,
                    -0.00020441
                ],
                [
                    -2.88034611,
                    0.0,
                    9.57714802
                ]
            ],
            "a": 5.933627520126659,
            "b": 5.933627520126659,
            "c": 10.00090785430913,
            "alpha": 98.735356572684,
            "beta": 98.735356572684,
            "gamma": 116.36719813746001,
            "volume": 302.10633677526425
        },
        "sites": [
            {
                "species": [
                    {
                        "element": "Na",
                        "occu": 1
                    }
                ],
                "abc": [
                    0.99641827,
                    0.68229338,
                    0.92351478
                ],
                "xyz": [
                    2.5913083133963473,
                    -1.5838338508230931,
                    8.84429460126936
                ],
                "label": "Na",
                "properties": {}
            },
            {
                "species": [
                    {
                        "element": "Na",
                        "occu": 1
                    }
                ],
                "abc": [
                    0.31770662,
                    0.00358173,
                    0.57648522
                ],
                "xyz": [
                    -0.6554218383963473,
                    -1.5838338508230927,
                    5.521018608730641
                ],
                "label": "Na",
                "properties": {}
            },
            {
                "species": [
                    {
                        "element": "Na",
                        "occu": 1
                    }
                ],
                "abc": [
                    0.78525836,
                    0.55402399,
                    0.54982537
                ],
                "xyz": [
                    2.605859458387416,
                    -1.165895585923649,
                    5.2654851909361025
                ],
                "label": "Na",
                "properties": {}
            },
            {
                "species": [
                    {
                        "element": "Na",
                        "occu": 1
                    }
                ],
                "abc": [
                    0.44597601,
                    0.21474164,
                    0.95017463
                ],
                "xyz": [
                    -0.6699729833874164,
                    -1.165895585923649,
                    9.099828019063896
                ],
                "label": "Na",
                "properties": {}
            },
            {
                "species": [
                    {
                        "element": "Na",
                        "occu": 1
                    }
                ],
                "abc": [
                    0.21474164,
                    0.44597601,
                    0.45017463
                ],
                "xyz": [
                    0.7702000716125834,
                    1.165895585923649,
                    4.311254009063896
                ],
                "label": "Na",
                "properties": {}
            },
            {
                "species": [
                    {
                        "element": "Na",
                        "occu": 1
                    }
                ],
                "abc": [
                    0.55402399,
                    0.78525836,
                    0.04982537
                ],
                "xyz": [
                    4.046032513387416,
                    1.165895585923649,
                    0.47691118093610385
                ],
                "label": "Na",
                "properties": {}
            },
            {
                "species": [
                    {
                        "element": "Na",
                        "occu": 1
                    }
                ],
                "abc": [
                    0.6677056,
                    0.3322944,
                    0.25
                ],
                "xyz": [
                    2.4081162925000004,
                    -1.6911605205980162,
                    2.394082595
                ],
                "label": "Na",
                "properties": {}
            },
            {
                "species": [
                    {
                        "element": "Na",
                        "occu": 1
                    }
                ],
                "abc": [
                    0.3322944,
                    0.6677056,
                    0.75
                ],
                "xyz": [
                    0.9679432375000001,
                    1.6911605205980162,
                    7.182656604999999
                ],
                "label": "Na",
                "properties": {}
            },
            {
                "species": [
                    {
                        "element": "Na",
                        "occu": 1
                    }
                ],
                "abc": [
                    0.68229338,
                    0.99641827,
                    0.42351478
                ],
                "xyz": [
                    4.0314813683963475,
                    1.5838338508230931,
                    4.055720591269358
                ],
                "label": "Na",
                "properties": {}
            },
            {
                "species": [
                    {
                        "element": "Na",
                        "occu": 1
                    }
                ],
                "abc": [
                    0.00358173,
                    0.31770662,
                    0.07648522
                ],
                "xyz": [
                    0.7847512166036528,
                    1.5838338508230927,
                    0.7324445987306408
                ],
                "label": "Na",
                "properties": {}
            },
            {
                "species": [
                    {
                        "element": "Ta",
                        "occu": 1
                    }
                ],
                "abc": [
                    0.09230925,
                    0.90769075,
                    0.25
                ],
                "xyz": [
                    2.4081162925,
                    4.1111954580705445,
                    2.394082595
                ],
                "label": "Ta",
                "properties": {}
            },
            {
                "species": [
                    {
                        "element": "Ta",
                        "occu": 1
                    }
                ],
                "abc": [
                    0.90769075,
                    0.09230925,
                    0.75
                ],
                "xyz": [
                    0.9679432374999997,
                    -4.1111954580705445,
                    7.182656604999999
                ],
                "label": "Ta",
                "properties": {}
            },
            {
                "species": [
                    {
                        "element": "O",
                        "occu": 1
                    }
                ],
                "abc": [
                    0.90294948,
                    0.09705052,
                    0.25
                ],
                "xyz": [
                    2.4081162925,
                    -4.063384003703512,
                    2.394082595
                ],
                "label": "O",
                "properties": {}
            },
            {
                "species": [
                    {
                        "element": "O",
                        "occu": 1
                    }
                ],
                "abc": [
                    0.09705052,
                    0.90294948,
                    0.75
                ],
                "xyz": [
                    0.9679432374999997,
                    4.063384003703512,
                    7.182656604999999
                ],
                "label": "O",
                "properties": {}
            },
            {
                "species": [
                    {
                        "element": "O",
                        "occu": 1
                    }
                ],
                "abc": [
                    0.03146221,
                    0.69475679,
                    0.38417574
                ],
                "xyz": [
                    1.1652012254722084,
                    3.3443653856002493,
                    3.6791594812472446
                ],
                "label": "O",
                "properties": {}
            },
            {
                "species": [
                    {
                        "element": "O",
                        "occu": 1
                    }
                ],
                "abc": [
                    0.30524321,
                    0.96853779,
                    0.11582426
                ],
                "xyz": [
                    3.6510313595277912,
                    3.344365385600249,
                    1.1090057087527552
                ],
                "label": "O",
                "properties": {}
            },
            {
                "species": [
                    {
                        "element": "O",
                        "occu": 1
                    }
                ],
                "abc": [
                    0.81041871,
                    0.59437748,
                    0.10362968
                ],
                "xyz": [
                    4.095998057414711,
                    -1.0892909926604584,
                    0.9921896302360357
                ],
                "label": "O",
                "properties": {}
            },
            {
                "species": [
                    {
                        "element": "O",
                        "occu": 1
                    }
                ],
                "abc": [
                    0.40562252,
                    0.18958129,
                    0.39637032
                ],
                "xyz": [
                    0.720234527585289,
                    -1.0892909926604588,
                    3.795975559763964
                ],
                "label": "O",
                "properties": {}
            },
            {
                "species": [
                    {
                        "element": "O",
                        "occu": 1
                    }
                ],
                "abc": [
                    0.18958129,
                    0.40562252,
                    0.89637032
                ],
                "xyz": [
                    -0.7199385274147114,
                    1.0892909926604588,
                    8.584549569763965
                ],
                "label": "O",
                "properties": {}
            },
            {
                "species": [
                    {
                        "element": "O",
                        "occu": 1
                    }
                ],
                "abc": [
                    0.59437748,
                    0.81041871,
                    0.60362968
                ],
                "xyz": [
                    2.6558250024147108,
                    1.0892909926604584,
                    5.780763640236035
                ],
                "label": "O",
                "properties": {}
            },
            {
                "species": [
                    {
                        "element": "O",
                        "occu": 1
                    }
                ],
                "abc": [
                    0.96853779,
                    0.30524321,
                    0.61582426
                ],
                "xyz": [
                    2.2108583045277914,
                    -3.344365385600249,
                    5.897579718752755
                ],
                "label": "O",
                "properties": {}
            },
            {
                "species": [
                    {
                        "element": "O",
                        "occu": 1
                    }
                ],
                "abc": [
                    0.69475679,
                    0.03146221,
                    0.88417574
                ],
                "xyz": [
                    -0.27497182952779164,
                    -3.3443653856002493,
                    8.467733491247245
                ],
                "label": "O",
                "properties": {}
            }
        ]
    },
    "spacegroup": {
        "source": "spglib",
        "symbol": "C2/c",
        "number": 15,
        "point_group": "2/m",
        "crystal_system": "monoclinic",
        "hall": "-C 2yc"
    },
    "dielectric": {
        "epsilon_ionic": [
            [
                4.333022,
                1e-08,
                0.86791576
            ],
            [
                1e-08,
                3.84612098,
                3e-08
            ],
            [
                0.86791576,
                3e-08,
                3.96383539
            ]
        ],
        "epsilon_ionic_avg": 4.0476594566666675,
        "epsilon_ionic_eig": [
            5.0357575262160275,
            3.2610998637839743,
            3.8461209800000007
        ],
        "epsilon_electronic": [
            [
                2.89158636,
                0.0,
                0.08229979
            ],
            [
                0.0,
                2.71316408,
                0.0
            ],
            [
                0.08230202,
                0.0,
                2.95389996
            ]
        ],
        "epsilon_electronic_avg": 2.8528834666666665,
        "epsilon_electronic_eig": [
            2.83474210802438,
            3.01074421197562,
            2.71316408
        ]
    },
    "phonon": {
        "lowest_freq": -0.10674343140536241,
        "frequency": [
            -0.10674343140536241,
            -0.038015196446666503,
            -0.025192678078017863,
            2.44705103433621,
            2.824063377574772,
            2.8525150133606596,
            3.67239662853021,
            3.676828196649038,
            3.850813481090469,
            3.969277389302448,
            4.148593566416714,
            4.239981355283435,
            4.488511393197297,
            4.565113672284445,
            4.590875207125092,
            5.028338596143436,
            5.238152406582004,
            5.268017127544625,
            5.474027695774277,
            5.6438551525901515,
            5.762316339355527,
            5.999675880151491,
            6.276757358575028,
            6.37325558944912,
            6.412661362069397,
            6.46405241012359,
            6.520776311398474,
            6.7889773672367575,
            6.817674577920615,
            7.088400550509682,
            7.224495630473693,
            7.334098188924103,
            7.7136163378623275,
            7.907722191166161,
            8.064817310711872,
            8.096243124206511,
            8.170880856061416,
            8.20218684149428,
            8.242843193529204,
            8.288572013611281,
            8.967904670248284,
            9.103308079201417,
            9.153945351289305,
            9.159184816193394,
            9.72357145106438,
            10.043068808844147,
            10.141413958251214,
            10.84240826324526,
            10.901767376116378,
            11.017468125622026,
            11.592676204236334,
            11.951216526075767,
            11.99365509872567,
            13.010734764748886,
            13.817323855467556,
            14.236474092822323,
            14.893283434823118,
            15.803015017524894,
            15.84008049533878,
            15.85853744194025,
            17.480128442217847,
            18.66595558307946,
            19.025672526360687,
            19.87594493640632,
            21.5997045673341,
            21.735586068440018
        ]
    },
    "born_effective_charge": {
        "avg_abs_trace": 1.6307849999999997,
        "tensors": [
            [
                [
                    0.83168,
                    0.17153,
                    -0.05237
                ],
                [
                    0.18872,
                    1.04939,
                    -0.00033
                ],
                [
                    -0.03522,
                    0.06459,
                    1.04759
                ]
            ],
            [
                [
                    0.83166,
                    -0.1715,
                    -0.05238
                ],
                [
                    -0.18872,
                    1.04939,
                    0.00033
                ],
                [
                    -0.0352,
                    -0.06458,
                    1.04761
                ]
            ],
            [
                [
                    1.07394,
                    0.13738,
                    0.04039
                ],
                [
                    0.13858,
                    1.00801,
                    0.09289
                ],
                [
                    0.05931,
                    0.04108,
                    1.04328
                ]
            ],
            [
                [
                    1.07394,
                    -0.13739,
                    0.04039
                ],
                [
                    -0.13858,
                    1.00801,
                    -0.09289
                ],
                [
                    0.05932,
                    -0.04108,
                    1.04327
                ]
            ],
            [
                [
                    1.07394,
                    0.13739,
                    0.04039
                ],
                [
                    0.13859,
                    1.00794,
                    0.09289
                ],
                [
                    0.05932,
                    0.04108,
                    1.04327
                ]
            ],
            [
                [
                    1.07394,
                    -0.13738,
                    0.04039
                ],
                [
                    -0.13859,
                    1.00794,
                    -0.09289
                ],
                [
                    0.05931,
                    -0.04108,
                    1.04328
                ]
            ],
            [
                [
                    1.18285,
                    1e-05,
                    -0.01684
                ],
                [
                    0.0,
                    0.97977,
                    0.0
                ],
                [
                    -0.04221,
                    1e-05,
                    0.75182
                ]
            ],
            [
                [
                    1.18285,
                    -1e-05,
                    -0.01684
                ],
                [
                    0.0,
                    0.97978,
                    0.0
                ],
                [
                    -0.04221,
                    -1e-05,
                    0.75182
                ]
            ],
            [
                [
                    0.83168,
                    -0.17153,
                    -0.05237
                ],
                [
                    -0.18872,
                    1.04935,
                    0.00033
                ],
                [
                    -0.03522,
                    -0.06459,
                    1.04759
                ]
            ],
            [
                [
                    0.83166,
                    0.1715,
                    -0.05238
                ],
                [
                    0.18872,
                    1.04935,
                    -0.00033
                ],
                [
                    -0.0352,
                    0.06458,
                    1.04761
                ]
            ],
            [
                [
                    4.422,
                    3e-05,
                    0.73951
                ],
                [
                    0.0,
                    2.74441,
                    0.0
                ],
                [
                    0.7046,
                    0.0,
                    4.71942
                ]
            ],
            [
                [
                    4.422,
                    -3e-05,
                    0.73951
                ],
                [
                    0.0,
                    2.74445,
                    0.0
                ],
                [
                    0.7046,
                    -0.0,
                    4.71942
                ]
            ],
            [
                [
                    -0.99095,
                    1e-05,
                    -0.13496
                ],
                [
                    0.0,
                    -2.79288,
                    0.0
                ],
                [
                    -0.14234,
                    3e-05,
                    -1.06563
                ]
            ],
            [
                [
                    -0.99095,
                    -1e-05,
                    -0.13496
                ],
                [
                    -0.0,
                    -2.79212,
                    0.0
                ],
                [
                    -0.14234,
                    -3e-05,
                    -1.06563
                ]
            ],
            [
                [
                    -1.99074,
                    -0.49693,
                    0.64002
                ],
                [
                    -0.51648,
                    -1.27342,
                    0.40938
                ],
                [
                    0.65737,
                    0.54891,
                    -2.08576
                ]
            ],
            [
                [
                    -1.99068,
                    0.49681,
                    0.63999
                ],
                [
                    0.51648,
                    -1.27342,
                    -0.40938
                ],
                [
                    0.65738,
                    -0.54907,
                    -2.08564
                ]
            ],
            [
                [
                    -2.22177,
                    -0.12043,
                    -0.92181
                ],
                [
                    -0.10459,
                    -1.25006,
                    -0.06464
                ],
                [
                    -0.94156,
                    -0.13028,
                    -2.20799
                ]
            ],
            [
                [
                    -2.22193,
                    0.12042,
                    -0.92195
                ],
                [
                    0.10459,
                    -1.25006,
                    0.06464
                ],
                [
                    -0.94146,
                    0.13028,
                    -2.20797
                ]
            ],
            [
                [
                    -2.22193,
                    -0.12042,
                    -0.92195
                ],
                [
                    -0.10437,
                    -1.24996,
                    -0.06459
                ],
                [
                    -0.94146,
                    -0.13028,
                    -2.20797
                ]
            ],
            [
                [
                    -2.22177,
                    0.12043,
                    -0.92181
                ],
                [
                    0.10437,
                    -1.24996,
                    0.06459
                ],
                [
                    -0.94156,
                    0.13028,
                    -2.20799
                ]
            ],
            [
                [
                    -1.99068,
                    -0.49681,
                    0.63999
                ],
                [
                    -0.5163,
                    -1.27295,
                    0.4092
                ],
                [
                    0.65738,
                    0.54907,
                    -2.08564
                ]
            ],
            [
                [
                    -1.99074,
                    0.49693,
                    0.64002
                ],
                [
                    0.5163,
                    -1.27295,
                    -0.4092
                ],
                [
                    0.65737,
                    -0.54891,
                    -2.08576
                ]
            ]
        ]
    },
    "band_gap": 2.5408,
    "is_direct": false,
    "formula": "Na5TaO5"
}