{
    "mp_id": "mp-8253",
    "nelements": 3,
    "nsites": 12,
    "elements": [
        "Na",
        "O",
        "Re"
    ],
    "structure": {
        "@module": "pymatgen.core.structure",
        "@class": "Structure",
        "charge": null,
        "lattice": {
            "matrix": [
                [
                    2.80140494,
                    -4.80502851,
                    0.0002156
                ],
                [
                    2.80140494,
                    4.80502851,
                    0.0002156
                ],
                [
                    -1.94808189,
                    0.0,
                    5.18118499
                ]
            ],
            "a": 5.562029186030273,
            "b": 5.562029186030273,
            "c": 5.535313988451538,
            "alpha": 100.20801541974105,
            "beta": 100.20801541974105,
            "gamma": 119.51432414801145,
            "volume": 139.49014325056274
        },
        "sites": [
            {
                "species": [
                    {
                        "element": "Na",
                        "occu": 1
                    }
                ],
                "abc": [
                    0.66633342,
                    0.33366658,
                    0.0
                ],
                "xyz": [
                    2.80140494,
                    -1.598473650531608,
                    0.00021559999999999998
                ],
                "label": "Na",
                "properties": {}
            },
            {
                "species": [
                    {
                        "element": "Na",
                        "occu": 1
                    }
                ],
                "abc": [
                    0.82760616,
                    0.17239384,
                    0.5
                ],
                "xyz": [
                    1.8273639949999998,
                    -3.148313877703243,
                    2.5908080950000003
                ],
                "label": "Na",
                "properties": {}
            },
            {
                "species": [
                    {
                        "element": "Na",
                        "occu": 1
                    }
                ],
                "abc": [
                    0.33366658,
                    0.66633342,
                    0.0
                ],
                "xyz": [
                    2.80140494,
                    1.598473650531608,
                    0.00021559999999999998
                ],
                "label": "Na",
                "properties": {}
            },
            {
                "species": [
                    {
                        "element": "Na",
                        "occu": 1
                    }
                ],
                "abc": [
                    0.17239384,
                    0.82760616,
                    0.5
                ],
                "xyz": [
                    1.8273639949999998,
                    3.148313877703243,
                    2.5908080950000003
                ],
                "label": "Na",
                "properties": {}
            },
            {
                "species": [
                    {
                        "element": "Na",
                        "occu": 1
                    }
                ],
                "abc": [
                    0.5,
                    0.5,
                    0.5
                ],
                "xyz": [
                    1.8273639949999998,
                    0.0,
                    2.5908080950000003
                ],
                "label": "Na",
                "properties": {}
            },
            {
                "species": [
                    {
                        "element": "Re",
                        "occu": 1
                    }
                ],
                "abc": [
                    0.0,
                    0.0,
                    0.0
                ],
                "xyz": [
                    0.0,
                    0.0,
                    0.0
                ],
                "label": "Re",
                "properties": {}
            },
            {
                "species": [
                    {
                        "element": "O",
                        "occu": 1
                    }
                ],
                "abc": [
                    0.79339443,
                    0.79339443,
                    0.20709563
                ],
                "xyz": [
                    4.041798904839827,
                    0.0,
                    1.0733428813288097
                ],
                "label": "O",
                "properties": {}
            },
            {
                "species": [
                    {
                        "element": "O",
                        "occu": 1
                    }
                ],
                "abc": [
                    0.20660557,
                    0.20660557,
                    0.79290437
                ],
                "xyz": [
                    -0.3870709148398279,
                    0.0,
                    4.1082733086711904
                ],
                "label": "O",
                "properties": {}
            },
            {
                "species": [
                    {
                        "element": "O",
                        "occu": 1
                    }
                ],
                "abc": [
                    0.92896573,
                    0.64773531,
                    0.78359717
                ],
                "xyz": [
                    2.8904666264268863,
                    -1.351320185979275,
                    4.060301832154702
                ],
                "label": "O",
                "properties": {}
            },
            {
                "species": [
                    {
                        "element": "O",
                        "occu": 1
                    }
                ],
                "abc": [
                    0.35226469,
                    0.07103427,
                    0.21640283
                ],
                "xyz": [
                    0.7642613635731137,
                    -1.351320185979274,
                    1.1213143578452975
                ],
                "label": "O",
                "properties": {}
            },
            {
                "species": [
                    {
                        "element": "O",
                        "occu": 1
                    }
                ],
                "abc": [
                    0.07103427,
                    0.35226469,
                    0.21640283
                ],
                "xyz": [
                    0.7642613635731137,
                    1.351320185979274,
                    1.1213143578452975
                ],
                "label": "O",
                "properties": {}
            },
            {
                "species": [
                    {
                        "element": "O",
                        "occu": 1
                    }
                ],
                "abc": [
                    0.64773531,
                    0.92896573,
                    0.78359717
                ],
                "xyz": [
                    2.8904666264268863,
                    1.351320185979275,
                    4.060301832154702
                ],
                "label": "O",
                "properties": {}
            }
        ]
    },
    "spacegroup": {
        "source": "spglib",
        "symbol": "C2/m",
        "number": 12,
        "point_group": "2/m",
        "crystal_system": "monoclinic",
        "hall": "-C 2y"
    },
    "dielectric": {
        "epsilon_ionic": [
            [
                11.43531029,
                -0.0,
                -3.05390988
            ],
            [
                -0.0,
                6.02463569,
                -1e-08
            ],
            [
                -3.05390988,
                -1e-08,
                7.12571649
            ]
        ],
        "epsilon_ionic_avg": 8.195220823333331,
        "epsilon_ionic_eig": [
            13.018094858732313,
            5.542931921267682,
            6.02463569
        ],
        "epsilon_electronic": [
            [
                3.60765118,
                0.0,
                -0.02014071
            ],
            [
                0.0,
                3.5836066,
                0.0
            ],
            [
                -0.02014631,
                0.0,
                3.46937285
            ]
        ],
        "epsilon_electronic_avg": 3.5535435433333333,
        "epsilon_electronic_eig": [
            3.610525799265079,
            3.466498230734921,
            3.5836066
        ]
    },
    "phonon": {
        "lowest_freq": -0.1227965749512118,
        "frequency": [
            -0.1227965749512118,
            -0.06618130692932274,
            -0.0406080941704858,
            2.2769379651174453,
            4.593178177986277,
            5.0834243466184565,
            5.23728989135815,
            5.94450537253692,
            5.980581254682479,
            6.37648643287157,
            6.754381399573038,
            6.847733983217645,
            7.292343270689429,
            7.664789474314372,
            7.698366955150666,
            7.756854807293995,
            7.781921995503173,
            8.628070063620166,
            8.633000282734876,
            8.6751982039633,
            9.150971453475215,
            9.683208438133278,
            10.30023198414383,
            10.433146638491252,
            11.584628441567107,
            11.674481731100013,
            11.91768592791294,
            13.828152924040795,
            14.110185760796313,
            14.438009626549958,
            16.772979332704054,
            16.8698253448979,
            17.09796236404961,
            17.466375625698355,
            18.355524370866576,
            22.545381096292
        ]
    },
    "born_effective_charge": {
        "avg_abs_trace": 1.929859722222222,
        "tensors": [
            [
                [
                    1.18572,
                    1e-05,
                    0.0279
                ],
                [
                    0.0,
                    1.16883,
                    0.0
                ],
                [
                    -0.00741,
                    -4e-05,
                    0.46739
                ]
            ],
            [
                [
                    0.76958,
                    -2e-05,
                    -0.04838
                ],
                [
                    0.0,
                    1.18559,
                    0.0
                ],
                [
                    -0.00764,
                    5e-05,
                    1.44522
                ]
            ],
            [
                [
                    1.18572,
                    -1e-05,
                    0.0279
                ],
                [
                    0.0,
                    1.16877,
                    0.0
                ],
                [
                    -0.00741,
                    4e-05,
                    0.46739
                ]
            ],
            [
                [
                    0.76958,
                    2e-05,
                    -0.04838
                ],
                [
                    0.0,
                    1.1856,
                    0.0
                ],
                [
                    -0.00764,
                    -5e-05,
                    1.44522
                ]
            ],
            [
                [
                    1.34245,
                    0.0,
                    0.05287
                ],
                [
                    0.0,
                    0.54003,
                    0.0
                ],
                [
                    0.0287,
                    -0.0,
                    1.42111
                ]
            ],
            [
                [
                    6.49162,
                    0.0,
                    -0.00026
                ],
                [
                    0.0,
                    6.52478,
                    0.0
                ],
                [
                    0.01763,
                    -0.0,
                    5.97289
                ]
            ],
            [
                [
                    -2.74966,
                    0.0,
                    1.06418
                ],
                [
                    -9e-05,
                    -1.10412,
                    3e-05
                ],
                [
                    0.96575,
                    -0.0,
                    -1.83653
                ]
            ],
            [
                [
                    -2.7495,
                    0.0,
                    1.06448
                ],
                [
                    9e-05,
                    -1.10412,
                    -3e-05
                ],
                [
                    0.96535,
                    -0.0,
                    -1.83625
                ]
            ],
            [
                [
                    -1.56135,
                    -0.70453,
                    -0.53513
                ],
                [
                    -0.65507,
                    -2.39135,
                    -0.93391
                ],
                [
                    -0.4868,
                    -0.83364,
                    -1.88669
                ]
            ],
            [
                [
                    -1.56139,
                    0.70465,
                    -0.53504
                ],
                [
                    0.65507,
                    -2.39135,
                    0.93391
                ],
                [
                    -0.48686,
                    0.83344,
                    -1.88653
                ]
            ],
            [
                [
                    -1.56139,
                    -0.70465,
                    -0.53504
                ],
                [
                    -0.65501,
                    -2.39133,
                    -0.93405
                ],
                [
                    -0.48686,
                    -0.83344,
                    -1.88653
                ]
            ],
            [
                [
                    -1.56135,
                    0.70453,
                    -0.53513
                ],
                [
                    0.65501,
                    -2.39133,
                    0.93405
                ],
                [
                    -0.4868,
                    0.83364,
                    -1.88669
                ]
            ]
        ]
    },
    "band_gap": 2.4482,
    "is_direct": false,
    "formula": "Na5ReO6"
}