{
    "mp_id": "mp-867730",
    "nelements": 3,
    "nsites": 12,
    "elements": [
        "Cs",
        "O",
        "Sn"
    ],
    "structure": {
        "@module": "pymatgen.core.structure",
        "@class": "Structure",
        "charge": null,
        "lattice": {
            "matrix": [
                [
                    5.58816061,
                    -3.85409886,
                    0.0
                ],
                [
                    5.58816061,
                    3.85409886,
                    0.0
                ],
                [
                    0.0,
                    0.0,
                    5.82915358
                ]
            ],
            "a": 6.788344203545432,
            "b": 6.788344203545432,
            "c": 5.82915358,
            "alpha": 90.0,
            "beta": 90.0,
            "gamma": 69.18728703953171,
            "volume": 251.08873202695935
        },
        "sites": [
            {
                "species": [
                    {
                        "element": "Cs",
                        "occu": 1
                    }
                ],
                "abc": [
                    0.48364234,
                    0.19374692,
                    0.75
                ],
                "xyz": [
                    3.7853599803690487,
                    -1.1172856077412212,
                    4.371865185
                ],
                "label": "Cs",
                "properties": {}
            },
            {
                "species": [
                    {
                        "element": "Cs",
                        "occu": 1
                    }
                ],
                "abc": [
                    0.19374692,
                    0.48364234,
                    0.25
                ],
                "xyz": [
                    3.7853599803690487,
                    1.1172856077412212,
                    1.457288395
                ],
                "label": "Cs",
                "properties": {}
            },
            {
                "species": [
                    {
                        "element": "Cs",
                        "occu": 1
                    }
                ],
                "abc": [
                    0.51635766,
                    0.80625308,
                    0.25
                ],
                "xyz": [
                    7.390961239630952,
                    1.117285607741221,
                    1.457288395
                ],
                "label": "Cs",
                "properties": {}
            },
            {
                "species": [
                    {
                        "element": "Cs",
                        "occu": 1
                    }
                ],
                "abc": [
                    0.80625308,
                    0.51635766,
                    0.75
                ],
                "xyz": [
                    7.390961239630952,
                    -1.117285607741221,
                    4.371865185
                ],
                "label": "Cs",
                "properties": {}
            },
            {
                "species": [
                    {
                        "element": "Sn",
                        "occu": 1
                    }
                ],
                "abc": [
                    0.91543304,
                    0.08456696,
                    0.25
                ],
                "xyz": [
                    5.58816061,
                    -3.202240011740669,
                    1.457288395
                ],
                "label": "Sn",
                "properties": {}
            },
            {
                "species": [
                    {
                        "element": "Sn",
                        "occu": 1
                    }
                ],
                "abc": [
                    0.08456696,
                    0.91543304,
                    0.75
                ],
                "xyz": [
                    5.58816061,
                    3.202240011740669,
                    4.371865185
                ],
                "label": "Sn",
                "properties": {}
            },
            {
                "species": [
                    {
                        "element": "O",
                        "occu": 1
                    }
                ],
                "abc": [
                    0.12031154,
                    0.12031154,
                    0.0
                ],
                "xyz": [
                    1.3446404175128788,
                    0.0,
                    0.0
                ],
                "label": "O",
                "properties": {}
            },
            {
                "species": [
                    {
                        "element": "O",
                        "occu": 1
                    }
                ],
                "abc": [
                    0.12031154,
                    0.12031154,
                    0.5
                ],
                "xyz": [
                    1.3446404175128788,
                    0.0,
                    2.91457679
                ],
                "label": "O",
                "properties": {}
            },
            {
                "species": [
                    {
                        "element": "O",
                        "occu": 1
                    }
                ],
                "abc": [
                    0.33818151,
                    0.66181849,
                    0.75
                ],
                "xyz": [
                    5.58816061,
                    1.247328915671843,
                    4.371865185
                ],
                "label": "O",
                "properties": {}
            },
            {
                "species": [
                    {
                        "element": "O",
                        "occu": 1
                    }
                ],
                "abc": [
                    0.66181849,
                    0.33818151,
                    0.25
                ],
                "xyz": [
                    5.58816061,
                    -1.247328915671843,
                    1.457288395
                ],
                "label": "O",
                "properties": {}
            },
            {
                "species": [
                    {
                        "element": "O",
                        "occu": 1
                    }
                ],
                "abc": [
                    0.87968846,
                    0.87968846,
                    0.0
                ],
                "xyz": [
                    9.83168080248712,
                    0.0,
                    0.0
                ],
                "label": "O",
                "properties": {}
            },
            {
                "species": [
                    {
                        "element": "O",
                        "occu": 1
                    }
                ],
                "abc": [
                    0.87968846,
                    0.87968846,
                    0.5
                ],
                "xyz": [
                    9.83168080248712,
                    0.0,
                    2.91457679
                ],
                "label": "O",
                "properties": {}
            }
        ]
    },
    "spacegroup": {
        "source": "spglib",
        "symbol": "Cmcm",
        "number": 63,
        "point_group": "mmm",
        "crystal_system": "orthorhombic",
        "hall": "-C 2c 2"
    },
    "dielectric": {
        "epsilon_ionic": [
            [
                7.59231072,
                1e-08,
                -1e-08
            ],
            [
                1e-08,
                6.00191147,
                -0.0
            ],
            [
                -1e-08,
                -0.0,
                22.95421913
            ]
        ],
        "epsilon_ionic_avg": 12.182813773333331,
        "epsilon_ionic_eig": [
            7.59231072,
            22.95421913,
            6.001911469999999
        ],
        "epsilon_electronic": [
            [
                3.53201368,
                0.0,
                0.0
            ],
            [
                0.0,
                3.59718201,
                0.0
            ],
            [
                0.0,
                0.0,
                3.7588519
            ]
        ],
        "epsilon_electronic_avg": 3.6293491966666664,
        "epsilon_electronic_eig": [
            3.53201368,
            3.59718201,
            3.7588519
        ]
    },
    "phonon": {
        "lowest_freq": -0.07860859015355247,
        "frequency": [
            -0.07860859015355247,
            -0.015259636011968033,
            -0.006889143726008401,
            1.369160355059785,
            1.438195616090022,
            1.4502723688999375,
            1.9123308278622464,
            2.0634476620813547,
            2.067275581931872,
            2.2713129722510175,
            2.2721869656370934,
            2.363714638212578,
            2.5402759464718456,
            2.891208421141081,
            2.928309698659095,
            2.9750632555894594,
            3.0623254706020666,
            3.079068753800765,
            4.868784574629484,
            4.9514952461537565,
            5.16969957752587,
            5.682031499800581,
            7.0111429248810495,
            7.044451593223139,
            8.234934180953186,
            8.998648188771645,
            11.259732182589856,
            11.357121547966859,
            13.178612731667597,
            14.030483841311582,
            15.586994384183766,
            15.85283956697532,
            16.374850596653854,
            16.74915854704113,
            18.189635825422183,
            18.684210915533637
        ]
    },
    "born_effective_charge": {
        "avg_abs_trace": 2.0143947222222223,
        "tensors": [
            [
                [
                    1.40995,
                    -0.13107,
                    0.0
                ],
                [
                    -0.04571,
                    1.48538,
                    -0.0
                ],
                [
                    0.00012,
                    3e-05,
                    1.24051
                ]
            ],
            [
                [
                    1.40995,
                    0.13107,
                    0.0
                ],
                [
                    0.04548,
                    1.48541,
                    -0.0
                ],
                [
                    0.00012,
                    -3e-05,
                    1.24051
                ]
            ],
            [
                [
                    1.41015,
                    -0.13109,
                    0.0
                ],
                [
                    -0.04548,
                    1.48541,
                    -0.0
                ],
                [
                    -0.00012,
                    -3e-05,
                    1.24051
                ]
            ],
            [
                [
                    1.41015,
                    0.13109,
                    0.0
                ],
                [
                    0.04571,
                    1.48538,
                    -0.0
                ],
                [
                    -0.00012,
                    3e-05,
                    1.24051
                ]
            ],
            [
                [
                    2.66272,
                    -0.00018,
                    0.0
                ],
                [
                    -0.0,
                    3.00117,
                    -0.0
                ],
                [
                    0.0,
                    0.00024,
                    4.19363
                ]
            ],
            [
                [
                    2.66272,
                    0.00018,
                    0.0
                ],
                [
                    -0.0,
                    3.00139,
                    -0.0
                ],
                [
                    0.0,
                    -0.00024,
                    4.19363
                ]
            ],
            [
                [
                    -1.94755,
                    -0.0,
                    0.0
                ],
                [
                    -9e-05,
                    -1.72238,
                    -0.32121
                ],
                [
                    0.0,
                    -0.38276,
                    -2.44182
                ]
            ],
            [
                [
                    -1.94755,
                    -0.0,
                    0.0
                ],
                [
                    -9e-05,
                    -1.72238,
                    0.32121
                ],
                [
                    0.0,
                    0.38276,
                    -2.44182
                ]
            ],
            [
                [
                    -1.58776,
                    -2e-05,
                    0.0
                ],
                [
                    -0.0,
                    -2.52752,
                    -0.0
                ],
                [
                    0.0,
                    -9e-05,
                    -1.79103
                ]
            ],
            [
                [
                    -1.58776,
                    2e-05,
                    0.0
                ],
                [
                    -0.0,
                    -2.52709,
                    -0.0
                ],
                [
                    0.0,
                    9e-05,
                    -1.79103
                ]
            ],
            [
                [
                    -1.94752,
                    -0.0,
                    0.0
                ],
                [
                    9e-05,
                    -1.72238,
                    -0.32121
                ],
                [
                    -0.0,
                    -0.38276,
                    -2.44182
                ]
            ],
            [
                [
                    -1.94752,
                    -0.0,
                    0.0
                ],
                [
                    9e-05,
                    -1.72238,
                    0.32121
                ],
                [
                    -0.0,
                    0.38276,
                    -2.44182
                ]
            ]
        ]
    },
    "band_gap": 2.5587999999999997,
    "is_direct": true,
    "formula": "Cs2SnO3"
}