{
    "mp_id": "mp-866313",
    "nelements": 4,
    "nsites": 32,
    "elements": [
        "B",
        "Ba",
        "In",
        "O"
    ],
    "structure": {
        "@module": "pymatgen.core.structure",
        "@class": "Structure",
        "charge": null,
        "lattice": {
            "matrix": [
                [
                    6.36779351,
                    3.67644673,
                    3.14445364
                ],
                [
                    -6.36779337,
                    3.67644696,
                    3.14445364
                ],
                [
                    -1.4e-07,
                    -7.35289469,
                    3.14445364
                ]
            ],
            "a": 7.997039667191546,
            "b": 7.9970396614508825,
            "c": 7.99704001592711,
            "alpha": 105.55052401854222,
            "beta": 105.5505240924816,
            "gamma": 105.55052978358191,
            "volume": 441.6861124276006
        },
        "sites": [
            {
                "species": [
                    {
                        "element": "Ba",
                        "occu": 1
                    }
                ],
                "abc": [
                    0.6652517,
                    0.15604045,
                    0.76370258
                ],
                "xyz": [
                    3.2425520078962897,
                    -2.5959877700898275,
                    4.9839424481293175
                ],
                "label": "Ba",
                "properties": {}
            },
            {
                "species": [
                    {
                        "element": "Ba",
                        "occu": 1
                    }
                ],
                "abc": [
                    0.15604045,
                    0.76370258,
                    0.6652517
                ],
                "xyz": [
                    -3.869466953903654,
                    -1.5101392617080878,
                    4.9839424481293175
                ],
                "label": "Ba",
                "properties": {}
            },
            {
                "species": [
                    {
                        "element": "Ba",
                        "occu": 1
                    }
                ],
                "abc": [
                    0.76370258,
                    0.6652517,
                    0.15604045
                ],
                "xyz": [
                    0.6269149460073643,
                    4.106125446803185,
                    4.983942448129317
                ],
                "label": "Ba",
                "properties": {}
            },
            {
                "species": [
                    {
                        "element": "Ba",
                        "occu": 1
                    }
                ],
                "abc": [
                    0.3347483,
                    0.84395955,
                    0.23629742
                ],
                "xyz": [
                    -3.2425520078962897,
                    2.5959867700898274,
                    4.4494184718706835
                ],
                "label": "Ba",
                "properties": {}
            },
            {
                "species": [
                    {
                        "element": "Ba",
                        "occu": 1
                    }
                ],
                "abc": [
                    0.84395955,
                    0.23629742,
                    0.3347483
                ],
                "xyz": [
                    3.869466953903654,
                    1.5101382617080872,
                    4.449418471870683
                ],
                "label": "Ba",
                "properties": {}
            },
            {
                "species": [
                    {
                        "element": "Ba",
                        "occu": 1
                    }
                ],
                "abc": [
                    0.23629742,
                    0.3347483,
                    0.84395955
                ],
                "xyz": [
                    -0.6269149460073637,
                    -4.106126446803185,
                    4.449418471870683
                ],
                "label": "Ba",
                "properties": {}
            },
            {
                "species": [
                    {
                        "element": "In",
                        "occu": 1
                    }
                ],
                "abc": [
                    0.0,
                    0.0,
                    0.0
                ],
                "xyz": [
                    0.0,
                    0.0,
                    0.0
                ],
                "label": "In",
                "properties": {}
            },
            {
                "species": [
                    {
                        "element": "In",
                        "occu": 1
                    }
                ],
                "abc": [
                    0.5,
                    0.5,
                    0.5
                ],
                "xyz": [
                    1.8666237112210428e-17,
                    -5.00000000069889e-07,
                    4.71668046
                ],
                "label": "In",
                "properties": {}
            },
            {
                "species": [
                    {
                        "element": "B",
                        "occu": 1
                    }
                ],
                "abc": [
                    0.20979541,
                    0.13379736,
                    0.4521005
                ],
                "xyz": [
                    0.4839398450002159,
                    -2.061046819304811,
                    2.502020599175003
                ],
                "label": "B",
                "properties": {}
            },
            {
                "species": [
                    {
                        "element": "B",
                        "occu": 1
                    }
                ],
                "abc": [
                    0.13379736,
                    0.4521005,
                    0.20979541
                ],
                "xyz": [
                    -2.026888635181909,
                    0.6114188193187398,
                    2.502020599175003
                ],
                "label": "B",
                "properties": {}
            },
            {
                "species": [
                    {
                        "element": "B",
                        "occu": 1
                    }
                ],
                "abc": [
                    0.4521005,
                    0.20979541,
                    0.13379736
                ],
                "xyz": [
                    1.5429487901816932,
                    1.4496272042928,
                    2.502020599175003
                ],
                "label": "B",
                "properties": {}
            },
            {
                "species": [
                    {
                        "element": "B",
                        "occu": 1
                    }
                ],
                "abc": [
                    0.79020459,
                    0.86620264,
                    0.5478995
                ],
                "xyz": [
                    -0.4839398450002163,
                    2.061045819304809,
                    6.931340320824997
                ],
                "label": "B",
                "properties": {}
            },
            {
                "species": [
                    {
                        "element": "B",
                        "occu": 1
                    }
                ],
                "abc": [
                    0.86620264,
                    0.5478995,
                    0.79020459
                ],
                "xyz": [
                    2.0268886351819093,
                    -0.6114198193187406,
                    6.931340320824997
                ],
                "label": "B",
                "properties": {}
            },
            {
                "species": [
                    {
                        "element": "B",
                        "occu": 1
                    }
                ],
                "abc": [
                    0.5478995,
                    0.79020459,
                    0.86620264
                ],
                "xyz": [
                    -1.5429487901816925,
                    -1.449628204292801,
                    6.931340320824997
                ],
                "label": "B",
                "properties": {}
            },
            {
                "species": [
                    {
                        "element": "O",
                        "occu": 1
                    }
                ],
                "abc": [
                    0.23448293,
                    0.32296632,
                    0.50135364
                ],
                "xyz": [
                    -0.5634439815590234,
                    -1.6369679707824663,
                    3.3293566015030196
                ],
                "label": "O",
                "properties": {}
            },
            {
                "species": [
                    {
                        "element": "O",
                        "occu": 1
                    }
                ],
                "abc": [
                    0.32296632,
                    0.50135364,
                    0.23448293
                ],
                "xyz": [
                    -1.1359335812003943,
                    1.306440245834426,
                    3.3293566015030196
                ],
                "label": "O",
                "properties": {}
            },
            {
                "species": [
                    {
                        "element": "O",
                        "occu": 1
                    }
                ],
                "abc": [
                    0.50135364,
                    0.23448293,
                    0.32296632
                ],
                "xyz": [
                    1.6993775627594179,
                    0.3305266661451496,
                    3.3293566015030196
                ],
                "label": "O",
                "properties": {}
            },
            {
                "species": [
                    {
                        "element": "O",
                        "occu": 1
                    }
                ],
                "abc": [
                    0.76551707,
                    0.67703368,
                    0.49864636
                ],
                "xyz": [
                    0.5634439815590241,
                    1.6369669707824657,
                    6.1040043184969806
                ],
                "label": "O",
                "properties": {}
            },
            {
                "species": [
                    {
                        "element": "O",
                        "occu": 1
                    }
                ],
                "abc": [
                    0.67703368,
                    0.49864636,
                    0.76551707
                ],
                "xyz": [
                    1.1359335812003934,
                    -1.306441245834427,
                    6.1040043184969806
                ],
                "label": "O",
                "properties": {}
            },
            {
                "species": [
                    {
                        "element": "O",
                        "occu": 1
                    }
                ],
                "abc": [
                    0.49864636,
                    0.76551707,
                    0.67703368
                ],
                "xyz": [
                    -1.6993775627594174,
                    -0.3305276661451497,
                    6.1040043184969806
                ],
                "label": "O",
                "properties": {}
            },
            {
                "species": [
                    {
                        "element": "O",
                        "occu": 1
                    }
                ],
                "abc": [
                    0.30440114,
                    0.06838264,
                    0.57393313
                ],
                "xyz": [
                    1.5029170017628668,
                    -2.8495501392860336,
                    2.9769074336990524
                ],
                "label": "O",
                "properties": {}
            },
            {
                "species": [
                    {
                        "element": "O",
                        "occu": 1
                    }
                ],
                "abc": [
                    0.06838264,
                    0.57393313,
                    0.30440114
                ],
                "xyz": [
                    -3.2192410914648413,
                    0.12321031831260498,
                    2.976907433699053
                ],
                "label": "O",
                "properties": {}
            },
            {
                "species": [
                    {
                        "element": "O",
                        "occu": 1
                    }
                ],
                "abc": [
                    0.57393313,
                    0.30440114,
                    0.06838264
                ],
                "xyz": [
                    1.7163240897019751,
                    2.726338874256518,
                    2.9769074336990524
                ],
                "label": "O",
                "properties": {}
            },
            {
                "species": [
                    {
                        "element": "O",
                        "occu": 1
                    }
                ],
                "abc": [
                    0.69559886,
                    0.93161736,
                    0.42606687
                ],
                "xyz": [
                    -1.5029170017628655,
                    2.849549139286033,
                    6.456453486300948
                ],
                "label": "O",
                "properties": {}
            },
            {
                "species": [
                    {
                        "element": "O",
                        "occu": 1
                    }
                ],
                "abc": [
                    0.93161736,
                    0.42606687,
                    0.69559886
                ],
                "xyz": [
                    3.219241091464841,
                    -0.12321131831260601,
                    6.456453486300948
                ],
                "label": "O",
                "properties": {}
            },
            {
                "species": [
                    {
                        "element": "O",
                        "occu": 1
                    }
                ],
                "abc": [
                    0.42606687,
                    0.69559886,
                    0.93161736
                ],
                "xyz": [
                    -1.7163240897019751,
                    -2.7263398742565172,
                    6.456453486300948
                ],
                "label": "O",
                "properties": {}
            },
            {
                "species": [
                    {
                        "element": "O",
                        "occu": 1
                    }
                ],
                "abc": [
                    0.06897176,
                    0.00445933,
                    0.28459491
                ],
                "xyz": [
                    0.41080179384934806,
                    -1.8226309108035463,
                    1.12579615891464
                ],
                "label": "O",
                "properties": {}
            },
            {
                "species": [
                    {
                        "element": "O",
                        "occu": 1
                    }
                ],
                "abc": [
                    0.00445933,
                    0.28459491,
                    0.06897176
                ],
                "xyz": [
                    -1.7838454980568448,
                    0.55555049303351,
                    1.12579615891464
                ],
                "label": "O",
                "properties": {}
            },
            {
                "species": [
                    {
                        "element": "O",
                        "occu": 1
                    }
                ],
                "abc": [
                    0.28459491,
                    0.06897176,
                    0.00445933
                ],
                "xyz": [
                    1.3730437042074966,
                    1.267080059744036,
                    1.12579615891464
                ],
                "label": "O",
                "properties": {}
            },
            {
                "species": [
                    {
                        "element": "O",
                        "occu": 1
                    }
                ],
                "abc": [
                    0.93102824,
                    0.99554067,
                    0.71540509
                ],
                "xyz": [
                    -0.41080179384934856,
                    1.8226299108035464,
                    8.30756476108536
                ],
                "label": "O",
                "properties": {}
            },
            {
                "species": [
                    {
                        "element": "O",
                        "occu": 1
                    }
                ],
                "abc": [
                    0.99554067,
                    0.71540509,
                    0.93102824
                ],
                "xyz": [
                    1.7838454980568448,
                    -0.5555514930335104,
                    8.30756476108536
                ],
                "label": "O",
                "properties": {}
            },
            {
                "species": [
                    {
                        "element": "O",
                        "occu": 1
                    }
                ],
                "abc": [
                    0.71540509,
                    0.93102824,
                    0.99554067
                ],
                "xyz": [
                    -1.3730437042074966,
                    -1.2670810597440365,
                    8.30756476108536
                ],
                "label": "O",
                "properties": {}
            }
        ]
    },
    "spacegroup": {
        "source": "spglib",
        "symbol": "R-3",
        "number": 148,
        "point_group": "-3",
        "crystal_system": "trigonal",
        "hall": "-R 3"
    },
    "dielectric": {
        "epsilon_ionic": [
            [
                7.22418252,
                -1.75e-06,
                1.14e-06
            ],
            [
                -1.75e-06,
                7.22423138,
                -6.4e-07
            ],
            [
                1.14e-06,
                -6.4e-07,
                6.72440058
            ]
        ],
        "epsilon_ionic_avg": 7.057604826666668,
        "epsilon_ionic_eig": [
            7.2241824574036135,
            7.22423144259981,
            6.724400579996581
        ],
        "epsilon_electronic": [
            [
                3.453724,
                -1.35e-06,
                -0.0
            ],
            [
                1.35e-06,
                3.453724,
                -0.0
            ],
            [
                0.0,
                -0.0,
                3.53873536
            ]
        ],
        "epsilon_electronic_avg": 3.4820611199999996,
        "epsilon_electronic_eig": [
            3.453724,
            3.453724,
            3.53873536
        ]
    },
    "phonon": {
        "lowest_freq": -0.01773595707304982,
        "frequency": [
            -0.01773595707304982,
            -0.01773595707304982,
            -0.013476564212422921,
            2.2626400089034027,
            2.468419722998578,
            2.468419722998578,
            2.528971901039914,
            2.52897190587192,
            2.609020534732383,
            2.8011494620685555,
            2.9752447266433744,
            2.9752447266433744,
            3.1522784075372203,
            3.1522784114137834,
            3.431205417546374,
            3.5491775308233913,
            3.6932052623565514,
            3.896790461138046,
            3.896790461138046,
            4.006168154848352,
            4.006168154848352,
            4.590915112706059,
            4.787335796318278,
            4.80637682585346,
            4.8063768283959165,
            5.504665474175415,
            5.5788167495375784,
            5.5788167495375784,
            5.585535461462651,
            5.585535461462651,
            5.765051277669327,
            5.938031200587646,
            5.938031200587646,
            6.07891497255379,
            6.109038186569461,
            6.109038186569461,
            6.2545488120864645,
            6.2545488120864645,
            6.319422500657451,
            6.393364994187133,
            6.393364994187133,
            6.814881767804315,
            7.252283051994769,
            7.452850274722904,
            7.568047670642794,
            7.568047670642794,
            7.802843259826966,
            7.802843275487933,
            8.38086188353482,
            8.38086188353482,
            8.97174226377918,
            8.97174226377918,
            9.962288905697186,
            9.962288905697186,
            10.091019542481035,
            10.134795732369358,
            10.134795732369358,
            10.141667731876275,
            11.46289446628784,
            12.213704400484607,
            16.186380711163913,
            16.186380711163913,
            16.22262053831965,
            16.22262053831965,
            16.278584063744372,
            16.430228753600343,
            17.188069769574415,
            17.20859717778997,
            17.208597248801023,
            17.246580472174468,
            17.490525212581385,
            17.490525212581385,
            21.45922241385581,
            21.45922241385581,
            21.595564360394615,
            21.722597114963573,
            21.722597114963573,
            21.786241820839074,
            26.67507873976493,
            26.710217410073533,
            26.710217410073533,
            26.810698940558712,
            26.81069898613756,
            26.88847740328956,
            34.277568268358934,
            34.277568268358934,
            34.85596431766443,
            35.47126283203653,
            35.47126283203653,
            36.97096383553127,
            36.97096383553127,
            37.29010549511011,
            37.290105527880215,
            37.435242650535024,
            37.49892753637916,
            37.63913437484467
        ]
    },
    "born_effective_charge": {
        "avg_abs_trace": 2.200338958333333,
        "tensors": [
            [
                [
                    2.95253,
                    -0.10193,
                    -0.02828
                ],
                [
                    -0.13405,
                    2.60501,
                    0.05573
                ],
                [
                    0.00423,
                    0.14962,
                    2.55262
                ]
            ],
            [
                [
                    2.79407,
                    0.22554,
                    0.0624
                ],
                [
                    0.19342,
                    2.76348,
                    -0.00337
                ],
                [
                    0.12746,
                    -0.07847,
                    2.55262
                ]
            ],
            [
                [
                    2.58971,
                    -0.07542,
                    -0.03412
                ],
                [
                    -0.10756,
                    2.96785,
                    -0.05235
                ],
                [
                    -0.13169,
                    -0.07115,
                    2.55262
                ]
            ],
            [
                [
                    2.95256,
                    -0.1019,
                    -0.02828
                ],
                [
                    -0.13406,
                    2.60501,
                    0.05574
                ],
                [
                    0.00422,
                    0.14962,
                    2.55263
                ]
            ],
            [
                [
                    2.79406,
                    0.22554,
                    0.06242
                ],
                [
                    0.1934,
                    2.76351,
                    -0.00339
                ],
                [
                    0.12746,
                    -0.07846,
                    2.55263
                ]
            ],
            [
                [
                    2.58973,
                    -0.07543,
                    -0.03414
                ],
                [
                    -0.10757,
                    2.96785,
                    -0.05236
                ],
                [
                    -0.13168,
                    -0.07115,
                    2.55263
                ]
            ],
            [
                [
                    3.33209,
                    -0.10819,
                    -0.0
                ],
                [
                    0.10819,
                    3.33211,
                    0.0
                ],
                [
                    -0.0,
                    -0.0,
                    3.63439
                ]
            ],
            [
                [
                    3.21134,
                    -0.16089,
                    0.0
                ],
                [
                    0.1609,
                    3.21135,
                    0.0
                ],
                [
                    -0.0,
                    -0.0,
                    3.86181
                ]
            ],
            [
                [
                    2.06273,
                    -0.89257,
                    -0.09004
                ],
                [
                    -1.03129,
                    1.28578,
                    -0.49631
                ],
                [
                    -0.30418,
                    -0.25358,
                    2.71351
                ]
            ],
            [
                [
                    2.31305,
                    0.88677,
                    -0.3848
                ],
                [
                    0.74803,
                    1.03545,
                    0.32613
                ],
                [
                    -0.06752,
                    0.39022,
                    2.71351
                ]
            ],
            [
                [
                    0.64694,
                    0.2139,
                    0.47484
                ],
                [
                    0.07516,
                    2.70155,
                    0.17019
                ],
                [
                    0.3717,
                    -0.13664,
                    2.71351
                ]
            ],
            [
                [
                    2.06273,
                    -0.89256,
                    -0.09002
                ],
                [
                    -1.03129,
                    1.28577,
                    -0.49631
                ],
                [
                    -0.30418,
                    -0.25359,
                    2.71351
                ]
            ],
            [
                [
                    2.31305,
                    0.88678,
                    -0.3848
                ],
                [
                    0.74803,
                    1.03544,
                    0.32611
                ],
                [
                    -0.06752,
                    0.39022,
                    2.71351
                ]
            ],
            [
                [
                    0.64694,
                    0.21389,
                    0.47482
                ],
                [
                    0.07516,
                    2.70155,
                    0.17019
                ],
                [
                    0.3717,
                    -0.13663,
                    2.71351
                ]
            ],
            [
                [
                    -1.89752,
                    0.25455,
                    0.28348
                ],
                [
                    0.21822,
                    -1.90591,
                    -0.2547
                ],
                [
                    0.35731,
                    -0.31776,
                    -1.98674
                ]
            ],
            [
                [
                    -2.10851,
                    -0.09638,
                    -0.36231
                ],
                [
                    -0.13271,
                    -1.69489,
                    -0.11812
                ],
                [
                    -0.45385,
                    -0.15056,
                    -1.98674
                ]
            ],
            [
                [
                    -1.69908,
                    -0.10368,
                    0.07884
                ],
                [
                    -0.13998,
                    -2.10432,
                    0.37283
                ],
                [
                    0.09654,
                    0.46832,
                    -1.98674
                ]
            ],
            [
                [
                    -1.89752,
                    0.25458,
                    0.28349
                ],
                [
                    0.21818,
                    -1.90587,
                    -0.2547
                ],
                [
                    0.35729,
                    -0.31775,
                    -1.98672
                ]
            ],
            [
                [
                    -2.1085,
                    -0.0964,
                    -0.36233
                ],
                [
                    -0.13277,
                    -1.69493,
                    -0.11817
                ],
                [
                    -0.45382,
                    -0.15055,
                    -1.98672
                ]
            ],
            [
                [
                    -1.69907,
                    -0.10359,
                    0.07883
                ],
                [
                    -0.13999,
                    -2.10433,
                    0.37288
                ],
                [
                    0.09653,
                    0.4683,
                    -1.98672
                ]
            ],
            [
                [
                    -2.21006,
                    0.41327,
                    -0.28285
                ],
                [
                    0.57738,
                    -1.93457,
                    0.39071
                ],
                [
                    -0.2641,
                    0.29022,
                    -1.76327
                ]
            ],
            [
                [
                    -2.43242,
                    -0.44902,
                    0.47979
                ],
                [
                    -0.28491,
                    -1.71223,
                    0.04961
                ],
                [
                    0.38339,
                    0.08361,
                    -1.76327
                ]
            ],
            [
                [
                    -1.57447,
                    -0.21048,
                    -0.19696
                ],
                [
                    -0.04631,
                    -2.57016,
                    -0.44031
                ],
                [
                    -0.11929,
                    -0.37383,
                    -1.76327
                ]
            ],
            [
                [
                    -2.21002,
                    0.41325,
                    -0.28286
                ],
                [
                    0.57738,
                    -1.93458,
                    0.39069
                ],
                [
                    -0.26413,
                    0.29025,
                    -1.76326
                ]
            ],
            [
                [
                    -2.43238,
                    -0.449,
                    0.47977
                ],
                [
                    -0.28483,
                    -1.71222,
                    0.0496
                ],
                [
                    0.38343,
                    0.08362,
                    -1.76326
                ]
            ],
            [
                [
                    -1.57448,
                    -0.21042,
                    -0.1969
                ],
                [
                    -0.0463,
                    -2.57011,
                    -0.44029
                ],
                [
                    -0.1193,
                    -0.37386,
                    -1.76326
                ]
            ],
            [
                [
                    -1.6503,
                    0.05727,
                    -0.12095
                ],
                [
                    0.01066,
                    -1.48888,
                    0.41024
                ],
                [
                    -0.03545,
                    0.25391,
                    -2.76552
                ]
            ],
            [
                [
                    -1.55865,
                    -0.06359,
                    0.41576
                ],
                [
                    -0.11019,
                    -1.58054,
                    -0.10035
                ],
                [
                    0.23762,
                    -0.09625,
                    -2.76552
                ]
            ],
            [
                [
                    -1.49981,
                    0.07621,
                    -0.29477
                ],
                [
                    0.02963,
                    -1.63937,
                    -0.30986
                ],
                [
                    -0.20217,
                    -0.15766,
                    -2.76552
                ]
            ],
            [
                [
                    -1.65031,
                    0.05727,
                    -0.12091
                ],
                [
                    0.01066,
                    -1.48887,
                    0.41017
                ],
                [
                    -0.03547,
                    0.25392,
                    -2.7655
                ]
            ],
            [
                [
                    -1.55865,
                    -0.06359,
                    0.41567
                ],
                [
                    -0.1102,
                    -1.58055,
                    -0.1004
                ],
                [
                    0.23764,
                    -0.09624,
                    -2.7655
                ]
            ],
            [
                [
                    -1.4998,
                    0.07624,
                    -0.2948
                ],
                [
                    0.02962,
                    -1.63938,
                    -0.3098
                ],
                [
                    -0.20217,
                    -0.15768,
                    -2.7655
                ]
            ]
        ]
    },
    "band_gap": 3.5503000000000005,
    "is_direct": false,
    "formula": "Ba3In(BO3)3"
}