{
    "mp_id": "mp-867300",
    "nelements": 3,
    "nsites": 9,
    "elements": [
        "Hf",
        "O",
        "Rb"
    ],
    "structure": {
        "@module": "pymatgen.core.structure",
        "@class": "Structure",
        "charge": null,
        "lattice": {
            "matrix": [
                [
                    4.0811049,
                    0.0,
                    0.0
                ],
                [
                    0.0,
                    4.0811049,
                    0.0
                ],
                [
                    0.0,
                    0.0,
                    8.99172579
                ]
            ],
            "a": 4.0811049,
            "b": 4.0811049,
            "c": 8.99172579,
            "alpha": 90.0,
            "beta": 90.0,
            "gamma": 90.0,
            "volume": 149.7609444236459
        },
        "sites": [
            {
                "species": [
                    {
                        "element": "Rb",
                        "occu": 1
                    }
                ],
                "abc": [
                    0.0,
                    0.0,
                    0.0
                ],
                "xyz": [
                    0.0,
                    0.0,
                    0.0
                ],
                "label": "Rb",
                "properties": {}
            },
            {
                "species": [
                    {
                        "element": "Rb",
                        "occu": 1
                    }
                ],
                "abc": [
                    0.0,
                    0.0,
                    0.5
                ],
                "xyz": [
                    0.0,
                    0.0,
                    4.495862895
                ],
                "label": "Rb",
                "properties": {}
            },
            {
                "species": [
                    {
                        "element": "Hf",
                        "occu": 1
                    }
                ],
                "abc": [
                    0.5,
                    0.5,
                    0.27537005
                ],
                "xyz": [
                    2.04055245,
                    2.04055245,
                    2.4760519803785894
                ],
                "label": "Hf",
                "properties": {}
            },
            {
                "species": [
                    {
                        "element": "Hf",
                        "occu": 1
                    }
                ],
                "abc": [
                    0.5,
                    0.5,
                    0.72462995
                ],
                "xyz": [
                    2.04055245,
                    2.04055245,
                    6.51567380962141
                ],
                "label": "Hf",
                "properties": {}
            },
            {
                "species": [
                    {
                        "element": "O",
                        "occu": 1
                    }
                ],
                "abc": [
                    0.5,
                    0.0,
                    0.23186507
                ],
                "xyz": [
                    2.04055245,
                    0.0,
                    2.0848671297191554
                ],
                "label": "O",
                "properties": {}
            },
            {
                "species": [
                    {
                        "element": "O",
                        "occu": 1
                    }
                ],
                "abc": [
                    0.5,
                    0.0,
                    0.76813493
                ],
                "xyz": [
                    2.04055245,
                    0.0,
                    6.906858660280845
                ],
                "label": "O",
                "properties": {}
            },
            {
                "species": [
                    {
                        "element": "O",
                        "occu": 1
                    }
                ],
                "abc": [
                    0.5,
                    0.5,
                    0.5
                ],
                "xyz": [
                    2.04055245,
                    2.04055245,
                    4.495862895
                ],
                "label": "O",
                "properties": {}
            },
            {
                "species": [
                    {
                        "element": "O",
                        "occu": 1
                    }
                ],
                "abc": [
                    0.0,
                    0.5,
                    0.23186507
                ],
                "xyz": [
                    0.0,
                    2.04055245,
                    2.0848671297191554
                ],
                "label": "O",
                "properties": {}
            },
            {
                "species": [
                    {
                        "element": "O",
                        "occu": 1
                    }
                ],
                "abc": [
                    0.0,
                    0.5,
                    0.76813493
                ],
                "xyz": [
                    0.0,
                    2.04055245,
                    6.906858660280845
                ],
                "label": "O",
                "properties": {}
            }
        ]
    },
    "spacegroup": {
        "source": "spglib",
        "symbol": "P4/mmm",
        "number": 123,
        "point_group": "4/mmm",
        "crystal_system": "tetragonal",
        "hall": "-P 4 2"
    },
    "dielectric": {
        "epsilon_ionic": [
            [
                8.73185801,
                -2.48e-06,
                -4e-08
            ],
            [
                -2.48e-06,
                8.7317836,
                -4e-08
            ],
            [
                -4e-08,
                -4e-08,
                5.73283012
            ]
        ],
        "epsilon_ionic_avg": 7.732157243333334,
        "epsilon_ionic_eig": [
            8.731858092563954,
            8.73178351743605,
            5.732830119999999
        ],
        "epsilon_electronic": [
            [
                3.83647282,
                0.0,
                0.0
            ],
            [
                0.0,
                3.83647282,
                0.0
            ],
            [
                0.0,
                -0.0,
                3.38437573
            ]
        ],
        "epsilon_electronic_avg": 3.6857737900000003,
        "epsilon_electronic_eig": [
            3.83647282,
            3.83647282,
            3.38437573
        ]
    },
    "phonon": {
        "lowest_freq": -0.018282970237027192,
        "frequency": [
            -0.018282970237027192,
            -0.018282970237027192,
            -0.009014045740089491,
            2.32456084218745,
            2.32456084218745,
            2.823301757079136,
            2.823301757079136,
            2.8517091030285564,
            3.630916206785187,
            3.7619628254279855,
            3.7619628254279855,
            4.866738308555072,
            5.0503119942192045,
            5.810538717442588,
            7.82498339240957,
            7.82498339240957,
            8.017849738862044,
            8.017849738862044,
            8.161981761373397,
            8.161981761373397,
            8.80671666166296,
            11.819425510461343,
            16.254656646813476,
            16.254656646813476,
            16.264191144982394,
            16.264191144982394,
            23.159839629558125
        ]
    },
    "born_effective_charge": {
        "avg_abs_trace": 2.695672962962963,
        "tensors": [
            [
                [
                    0.94328,
                    0.0,
                    0.0
                ],
                [
                    -0.0,
                    0.94318,
                    -0.0
                ],
                [
                    -0.0,
                    -0.0,
                    1.88017
                ]
            ],
            [
                [
                    1.14656,
                    0.0,
                    0.0
                ],
                [
                    -0.0,
                    1.14657,
                    -0.0
                ],
                [
                    -0.0,
                    0.0,
                    1.05364
                ]
            ],
            [
                [
                    5.70183,
                    0.0,
                    -0.00088
                ],
                [
                    -0.0,
                    5.70185,
                    -0.00088
                ],
                [
                    -0.0,
                    0.0,
                    3.23542
                ]
            ],
            [
                [
                    5.70183,
                    0.0,
                    0.00088
                ],
                [
                    -0.0,
                    5.70185,
                    0.00088
                ],
                [
                    -0.0,
                    0.0,
                    3.2354
                ]
            ],
            [
                [
                    -1.64585,
                    0.0,
                    -0.00032
                ],
                [
                    0.0,
                    -4.42942,
                    0.00201
                ],
                [
                    -0.0,
                    0.0,
                    -1.49508
                ]
            ],
            [
                [
                    -1.64585,
                    0.0,
                    0.00032
                ],
                [
                    0.0,
                    -4.42942,
                    -0.00201
                ],
                [
                    -0.0,
                    0.0,
                    -1.49495
                ]
            ],
            [
                [
                    -1.34294,
                    0.0,
                    0.0
                ],
                [
                    -0.0,
                    -1.34293,
                    -0.0
                ],
                [
                    0.0,
                    -0.0,
                    -3.42458
                ]
            ],
            [
                [
                    -4.42943,
                    0.0,
                    0.00202
                ],
                [
                    -0.0,
                    -1.64584,
                    -0.00032
                ],
                [
                    -0.0,
                    0.0,
                    -1.49508
                ]
            ],
            [
                [
                    -4.42943,
                    0.0,
                    -0.00202
                ],
                [
                    -0.0,
                    -1.64584,
                    0.00032
                ],
                [
                    -0.0,
                    0.0,
                    -1.49495
                ]
            ]
        ]
    },
    "band_gap": 1.7427000000000001,
    "is_direct": true,
    "formula": "Rb2Hf2O5"
}