{
    "mp_id": "mp-8313",
    "nelements": 4,
    "nsites": 18,
    "elements": [
        "Cs",
        "Ge",
        "Li",
        "O"
    ],
    "structure": {
        "@module": "pymatgen.core.structure",
        "@class": "Structure",
        "charge": null,
        "lattice": {
            "matrix": [
                [
                    5.6883596,
                    -0.00099691,
                    0.0014653
                ],
                [
                    0.33507967,
                    5.80418985,
                    0.00156683
                ],
                [
                    2.25755638,
                    0.78571828,
                    9.04624599
                ]
            ],
            "a": 5.6883598760843,
            "b": 5.813854199672243,
            "c": 9.35673450173702,
            "alpha": 84.3759639541596,
            "beta": 76.02429646667005,
            "gamma": 86.70598217801773,
            "volume": 298.6509448338672
        },
        "sites": [
            {
                "species": [
                    {
                        "element": "Cs",
                        "occu": 1
                    }
                ],
                "abc": [
                    0.21380425,
                    0.27102294,
                    0.98416915
                ],
                "xyz": [
                    3.528827078887607,
                    2.3461351456373536,
                    8.903774160909814
                ],
                "label": "Cs",
                "properties": {}
            },
            {
                "species": [
                    {
                        "element": "Cs",
                        "occu": 1
                    }
                ],
                "abc": [
                    0.78619575,
                    0.72897706,
                    0.01583085
                ],
                "xyz": [
                    4.752168571112393,
                    4.242776074362647,
                    0.1455039590901863
                ],
                "label": "Cs",
                "properties": {}
            },
            {
                "species": [
                    {
                        "element": "Cs",
                        "occu": 1
                    }
                ],
                "abc": [
                    0.48317586,
                    0.85287948,
                    0.71328702
                ],
                "xyz": [
                    4.644546279199615,
                    5.5102353887434115,
                    6.454614159137356
                ],
                "label": "Cs",
                "properties": {}
            },
            {
                "species": [
                    {
                        "element": "Cs",
                        "occu": 1
                    }
                ],
                "abc": [
                    0.51682414,
                    0.14712052,
                    0.28671298
                ],
                "xyz": [
                    3.636449370800385,
                    1.0786758312565892,
                    2.5946639608626434
                ],
                "label": "Cs",
                "properties": {}
            },
            {
                "species": [
                    {
                        "element": "Li",
                        "occu": 1
                    }
                ],
                "abc": [
                    0.06842836,
                    0.81551947,
                    0.56072275
                ],
                "xyz": [
                    1.9283723350780761,
                    5.173931728021882,
                    5.073813977136361
                ],
                "label": "Li",
                "properties": {}
            },
            {
                "species": [
                    {
                        "element": "Li",
                        "occu": 1
                    }
                ],
                "abc": [
                    0.93157164,
                    0.18448053,
                    0.43927725
                ],
                "xyz": [
                    6.352623314921925,
                    1.4149794919781182,
                    3.975464142863639
                ],
                "label": "Li",
                "properties": {}
            },
            {
                "species": [
                    {
                        "element": "Li",
                        "occu": 1
                    }
                ],
                "abc": [
                    0.69391261,
                    0.58726888,
                    0.41982602
                ],
                "xyz": [
                    5.091787229107234,
                    3.737793282430479,
                    3.799786390569343
                ],
                "label": "Li",
                "properties": {}
            },
            {
                "species": [
                    {
                        "element": "Li",
                        "occu": 1
                    }
                ],
                "abc": [
                    0.30608739,
                    0.41273112,
                    0.58017398
                ],
                "xyz": [
                    3.1892084208927667,
                    2.8511179375695215,
                    5.249491729430656
                ],
                "label": "Li",
                "properties": {}
            },
            {
                "species": [
                    {
                        "element": "Ge",
                        "occu": 1
                    }
                ],
                "abc": [
                    0.86147705,
                    0.31715916,
                    0.70908526
                ],
                "xyz": [
                    6.6074647868944165,
                    2.3971344130811634,
                    6.416318946651136
                ],
                "label": "Ge",
                "properties": {}
            },
            {
                "species": [
                    {
                        "element": "Ge",
                        "occu": 1
                    }
                ],
                "abc": [
                    0.13852295,
                    0.68284084,
                    0.29091474
                ],
                "xyz": [
                    1.6735308631055839,
                    4.191776806918837,
                    2.6329591733488646
                ],
                "label": "Ge",
                "properties": {}
            },
            {
                "species": [
                    {
                        "element": "O",
                        "occu": 1
                    }
                ],
                "abc": [
                    0.02111397,
                    0.57370864,
                    0.71474463
                ],
                "xyz": [
                    1.9259182552382001,
                    3.891480737740308,
                    6.466685585220185
                ],
                "label": "O",
                "properties": {}
            },
            {
                "species": [
                    {
                        "element": "O",
                        "occu": 1
                    }
                ],
                "abc": [
                    0.97888603,
                    0.42629136,
                    0.28525537
                ],
                "xyz": [
                    6.3550773947618,
                    2.6974304822596924,
                    2.582592534779814
                ],
                "label": "O",
                "properties": {}
            },
            {
                "species": [
                    {
                        "element": "O",
                        "occu": 1
                    }
                ],
                "abc": [
                    0.90004617,
                    0.86279667,
                    0.39941199
                ],
                "xyz": [
                    6.310586981296427,
                    5.320763711394642,
                    3.615849806254777
                ],
                "label": "O",
                "properties": {}
            },
            {
                "species": [
                    {
                        "element": "O",
                        "occu": 1
                    }
                ],
                "abc": [
                    0.09995383,
                    0.13720333,
                    0.60058801
                ],
                "xyz": [
                    1.970408668703573,
                    1.268147508605358,
                    5.433428313745222
                ],
                "label": "O",
                "properties": {}
            },
            {
                "species": [
                    {
                        "element": "O",
                        "occu": 1
                    }
                ],
                "abc": [
                    0.73201522,
                    0.19711686,
                    0.89060293
                ],
                "xyz": [
                    6.240601983101541,
                    1.8431369271054612,
                    8.05799465470637
                ],
                "label": "O",
                "properties": {}
            },
            {
                "species": [
                    {
                        "element": "O",
                        "occu": 1
                    }
                ],
                "abc": [
                    0.26798478,
                    0.80288314,
                    0.10939707
                ],
                "xyz": [
                    2.040393666898458,
                    4.74577429289454,
                    0.9912834652936293
                ],
                "label": "O",
                "properties": {}
            },
            {
                "species": [
                    {
                        "element": "O",
                        "occu": 1
                    }
                ],
                "abc": [
                    0.35813716,
                    0.64103474,
                    0.40458169
                ],
                "xyz": [
                    3.1653766368311542,
                    4.038217530475507,
                    3.661474661632145
                ],
                "label": "O",
                "properties": {}
            },
            {
                "species": [
                    {
                        "element": "O",
                        "occu": 1
                    }
                ],
                "abc": [
                    0.64186284,
                    0.35896526,
                    0.59541831
                ],
                "xyz": [
                    5.115619013168846,
                    2.5506936895244934,
                    5.387803458367854
                ],
                "label": "O",
                "properties": {}
            }
        ]
    },
    "spacegroup": {
        "source": "spglib",
        "symbol": "P-1",
        "number": 2,
        "point_group": "-1",
        "crystal_system": "triclinic",
        "hall": "-P 1"
    },
    "dielectric": {
        "epsilon_ionic": [
            [
                5.95974912,
                -0.09048238,
                -0.89580119
            ],
            [
                -0.09048238,
                5.73590486,
                0.73580099
            ],
            [
                -0.89580119,
                0.73580099,
                6.67035387
            ]
        ],
        "epsilon_ionic_avg": 6.1220026166666655,
        "epsilon_ionic_eig": [
            7.528705818710736,
            5.744201153039756,
            5.093100878249501
        ],
        "epsilon_electronic": [
            [
                3.25452359,
                -0.01585625,
                0.01786253
            ],
            [
                -0.01585941,
                3.20115276,
                0.04003822
            ],
            [
                0.01786331,
                0.04003666,
                3.2000838
            ]
        ],
        "epsilon_electronic_avg": 3.2185867166666675,
        "epsilon_electronic_eig": [
            3.154866908371167,
            3.2603092078189975,
            3.240584033809838
        ]
    },
    "phonon": {
        "lowest_freq": -0.1455140259323474,
        "frequency": [
            -0.1455140259323474,
            -0.09061592090939313,
            -0.08376967002882892,
            1.5346999093021523,
            1.574234148209548,
            1.5823433877239657,
            1.817001244253307,
            1.9808194223029987,
            2.1227047018037437,
            2.147813812051867,
            2.487614125310105,
            2.7659569107079363,
            2.81182686248543,
            3.0238736771521917,
            3.0911782045186356,
            3.322150470722649,
            3.677322626519013,
            4.2505754407374665,
            4.975776314777639,
            5.135430962789106,
            5.416684627766588,
            5.635531835783961,
            5.869915616791013,
            6.368736159700604,
            8.217639493481206,
            8.405472977925898,
            8.43200006188464,
            8.54023244172063,
            8.9939810457287,
            9.062355944676769,
            9.624386327263643,
            9.884763756852724,
            10.237955763344113,
            10.50142986754409,
            10.77977756601117,
            11.498725627654206,
            11.806065195720828,
            12.079345682595964,
            12.560608203072784,
            13.297295806146973,
            13.383047106965233,
            13.996260263981961,
            14.383907072177346,
            15.98581811109348,
            16.155832029191433,
            17.17031919993923,
            18.629755564673747,
            19.174929811666733,
            20.084144696771716,
            20.51948790487217,
            21.040838976182524,
            21.200470246285253,
            21.99380835923257,
            22.33617760190889
        ]
    },
    "born_effective_charge": {
        "avg_abs_trace": 1.6728444444444444,
        "tensors": [
            [
                [
                    1.38633,
                    -0.12837,
                    -0.0157
                ],
                [
                    -0.13896,
                    1.2911,
                    0.00754
                ],
                [
                    -0.03756,
                    -0.06278,
                    1.30203
                ]
            ],
            [
                [
                    1.38634,
                    -0.12839,
                    -0.01575
                ],
                [
                    -0.13901,
                    1.29113,
                    0.00755
                ],
                [
                    -0.03748,
                    -0.06286,
                    1.30195
                ]
            ],
            [
                [
                    1.46318,
                    0.02993,
                    0.02822
                ],
                [
                    0.00273,
                    1.51789,
                    0.01584
                ],
                [
                    0.00793,
                    0.03849,
                    1.20732
                ]
            ],
            [
                [
                    1.46321,
                    0.02995,
                    0.02827
                ],
                [
                    0.00272,
                    1.51789,
                    0.01583
                ],
                [
                    0.00797,
                    0.03852,
                    1.20732
                ]
            ],
            [
                [
                    0.83519,
                    0.00181,
                    -0.01952
                ],
                [
                    0.02599,
                    1.08088,
                    -0.03827
                ],
                [
                    0.0489,
                    0.0873,
                    1.06559
                ]
            ],
            [
                [
                    0.83519,
                    0.00181,
                    -0.01953
                ],
                [
                    0.02599,
                    1.08088,
                    -0.03827
                ],
                [
                    0.04888,
                    0.08729,
                    1.06558
                ]
            ],
            [
                [
                    1.18903,
                    -0.05886,
                    -0.03042
                ],
                [
                    0.00193,
                    0.87213,
                    -0.08149
                ],
                [
                    -0.02506,
                    -0.11817,
                    0.98293
                ]
            ],
            [
                [
                    1.18903,
                    -0.05886,
                    -0.03043
                ],
                [
                    0.00193,
                    0.87213,
                    -0.0815
                ],
                [
                    -0.02505,
                    -0.11818,
                    0.98294
                ]
            ],
            [
                [
                    2.77587,
                    0.08115,
                    -0.08366
                ],
                [
                    0.16081,
                    2.65709,
                    -0.01526
                ],
                [
                    0.02248,
                    0.05483,
                    2.95684
                ]
            ],
            [
                [
                    2.77583,
                    0.08117,
                    -0.08366
                ],
                [
                    0.16079,
                    2.65711,
                    -0.01528
                ],
                [
                    0.02241,
                    0.05483,
                    2.95686
                ]
            ],
            [
                [
                    -1.7755,
                    -0.31309,
                    0.06645
                ],
                [
                    -0.44245,
                    -2.10904,
                    0.03717
                ],
                [
                    -0.00395,
                    -0.04557,
                    -1.69756
                ]
            ],
            [
                [
                    -1.77547,
                    -0.31286,
                    0.06651
                ],
                [
                    -0.4425,
                    -2.10895,
                    0.03718
                ],
                [
                    -0.0041,
                    -0.04569,
                    -1.6976
                ]
            ],
            [
                [
                    -1.87306,
                    0.38585,
                    0.31199
                ],
                [
                    0.37274,
                    -1.95437,
                    -0.31142
                ],
                [
                    0.2268,
                    -0.34988,
                    -1.76267
                ]
            ],
            [
                [
                    -1.87303,
                    0.38583,
                    0.31195
                ],
                [
                    0.37281,
                    -1.95441,
                    -0.31149
                ],
                [
                    0.22671,
                    -0.34973,
                    -1.76264
                ]
            ],
            [
                [
                    -1.76428,
                    -0.11837,
                    0.17515
                ],
                [
                    -0.10225,
                    -1.69947,
                    0.25654
                ],
                [
                    0.16207,
                    0.31794,
                    -2.19533
                ]
            ],
            [
                [
                    -1.7642,
                    -0.11834,
                    0.17497
                ],
                [
                    -0.10221,
                    -1.6995,
                    0.25659
                ],
                [
                    0.16198,
                    0.3179,
                    -2.19518
                ]
            ],
            [
                [
                    -2.23685,
                    0.11986,
                    -0.43246
                ],
                [
                    0.11946,
                    -1.65627,
                    0.12935
                ],
                [
                    -0.40145,
                    0.07795,
                    -1.85917
                ]
            ],
            [
                [
                    -2.23679,
                    0.11978,
                    -0.4324
                ],
                [
                    0.11947,
                    -1.65625,
                    0.12937
                ],
                [
                    -0.40147,
                    0.07783,
                    -1.85922
                ]
            ]
        ]
    },
    "band_gap": 3.5808999999999997,
    "is_direct": false,
    "formula": "Cs2Li2GeO4"
}