{
    "mp_id": "mp-8184",
    "nelements": 4,
    "nsites": 16,
    "elements": [
        "Ge",
        "Li",
        "O",
        "Zn"
    ],
    "structure": {
        "@module": "pymatgen.core.structure",
        "@class": "Structure",
        "charge": null,
        "lattice": {
            "matrix": [
                [
                    5.02507433,
                    0.0,
                    5.016e-05
                ],
                [
                    0.0,
                    5.40995397,
                    0.0
                ],
                [
                    -5.04338839,
                    0.0,
                    6.3541219
                ]
            ],
            "a": 5.025074330250346,
            "b": 5.40995397,
            "c": 8.112375211517673,
            "alpha": 90.0,
            "beta": 128.43913330779836,
            "gamma": 90.0,
            "volume": 172.74084639072112
        },
        "sites": [
            {
                "species": [
                    {
                        "element": "Li",
                        "occu": 1
                    }
                ],
                "abc": [
                    0.49798112,
                    0.83358372,
                    0.9999606
                ],
                "xyz": [
                    -2.540797537560784,
                    4.509649555341369,
                    6.353896526330119
                ],
                "label": "Li",
                "properties": {}
            },
            {
                "species": [
                    {
                        "element": "Li",
                        "occu": 1
                    }
                ],
                "abc": [
                    0.74975907,
                    0.6695544,
                    0.75155211
                ],
                "xyz": [
                    -0.022774129712329838,
                    3.622258484410968,
                    4.77549132905716
                ],
                "label": "Li",
                "properties": {}
            },
            {
                "species": [
                    {
                        "element": "Li",
                        "occu": 1
                    }
                ],
                "abc": [
                    0.74975907,
                    0.3304456,
                    0.25155211
                ],
                "xyz": [
                    2.49892006528767,
                    1.7876954855890321,
                    1.5984303790571601
                ],
                "label": "Li",
                "properties": {}
            },
            {
                "species": [
                    {
                        "element": "Li",
                        "occu": 1
                    }
                ],
                "abc": [
                    0.49798112,
                    0.16641628,
                    0.4999606
                ],
                "xyz": [
                    -0.019103342560784053,
                    0.9003044146586316,
                    3.1768355763301193
                ],
                "label": "Li",
                "properties": {}
            },
            {
                "species": [
                    {
                        "element": "Zn",
                        "occu": 1
                    }
                ],
                "abc": [
                    0.24822991,
                    0.66751224,
                    0.24818258
                ],
                "xyz": [
                    -0.004307393893036027,
                    3.6112104928115927,
                    1.5769948179887878
                ],
                "label": "Zn",
                "properties": {}
            },
            {
                "species": [
                    {
                        "element": "Zn",
                        "occu": 1
                    }
                ],
                "abc": [
                    0.24822991,
                    0.33248776,
                    0.74818258
                ],
                "xyz": [
                    -2.526001588893036,
                    1.7987434771884074,
                    4.754055767988787
                ],
                "label": "Zn",
                "properties": {}
            },
            {
                "species": [
                    {
                        "element": "Ge",
                        "occu": 1
                    }
                ],
                "abc": [
                    0.00433764,
                    0.8310344,
                    0.50064681
                ],
                "xyz": [
                    -2.5031593456277546,
                    4.4958578514865675,
                    3.1811710771621615
                ],
                "label": "Ge",
                "properties": {}
            },
            {
                "species": [
                    {
                        "element": "Ge",
                        "occu": 1
                    }
                ],
                "abc": [
                    0.00433764,
                    0.1689656,
                    0.00064681
                ],
                "xyz": [
                    0.0185348493722453,
                    0.914096118513432,
                    0.0041101271621614005
                ],
                "label": "Ge",
                "properties": {}
            },
            {
                "species": [
                    {
                        "element": "O",
                        "occu": 1
                    }
                ],
                "abc": [
                    0.35707724,
                    0.17735902,
                    0.99650895
                ],
                "xyz": [
                    -3.23144199640984,
                    0.9595041343643095,
                    6.3319572537353634
                ],
                "label": "O",
                "properties": {}
            },
            {
                "species": [
                    {
                        "element": "O",
                        "occu": 1
                    }
                ],
                "abc": [
                    0.65278449,
                    0.67863539,
                    0.26827347
                ],
                "xyz": [
                    1.9272832797781287,
                    3.6713862223129983,
                    1.7046750745860115
                ],
                "label": "O",
                "properties": {}
            },
            {
                "species": [
                    {
                        "element": "O",
                        "occu": 1
                    }
                ],
                "abc": [
                    0.35707724,
                    0.82264098,
                    0.49650895
                ],
                "xyz": [
                    -0.7097478014098413,
                    4.45044983563569,
                    3.1548963037353634
                ],
                "label": "O",
                "properties": {}
            },
            {
                "species": [
                    {
                        "element": "O",
                        "occu": 1
                    }
                ],
                "abc": [
                    0.65278449,
                    0.32136461,
                    0.76827347
                ],
                "xyz": [
                    -0.5944109152218711,
                    1.7385677476870016,
                    4.8817360245860115
                ],
                "label": "O",
                "properties": {}
            },
            {
                "species": [
                    {
                        "element": "O",
                        "occu": 1
                    }
                ],
                "abc": [
                    0.89555689,
                    0.14491077,
                    0.50426554
                ],
                "xyz": [
                    1.957032969080553,
                    0.7839605954572569,
                    3.2042096322629283
                ],
                "label": "O",
                "properties": {}
            },
            {
                "species": [
                    {
                        "element": "O",
                        "occu": 1
                    }
                ],
                "abc": [
                    0.89555689,
                    0.85508923,
                    0.00426554
                ],
                "xyz": [
                    4.478727164080553,
                    4.625993374542744,
                    0.027148682262928398
                ],
                "label": "O",
                "properties": {}
            },
            {
                "species": [
                    {
                        "element": "O",
                        "occu": 1
                    }
                ],
                "abc": [
                    0.12227565,
                    0.67184149,
                    0.73161294
                ],
                "xyz": [
                    -3.075363977570702,
                    3.6346315360362156,
                    4.64876393772399
                ],
                "label": "O",
                "properties": {}
            },
            {
                "species": [
                    {
                        "element": "O",
                        "occu": 1
                    }
                ],
                "abc": [
                    0.12227565,
                    0.32815851,
                    0.23161294
                ],
                "xyz": [
                    -0.553669782570702,
                    1.7753224339637848,
                    1.4717029877239898
                ],
                "label": "O",
                "properties": {}
            }
        ]
    },
    "spacegroup": {
        "source": "spglib",
        "symbol": "Pc",
        "number": 7,
        "point_group": "m",
        "crystal_system": "monoclinic",
        "hall": "P -2yc"
    },
    "dielectric": {
        "epsilon_ionic": [
            [
                3.90871733,
                -1.3e-07,
                -0.01383501
            ],
            [
                -1.3e-07,
                3.4092784,
                6e-08
            ],
            [
                -0.01383501,
                6e-08,
                3.12239213
            ]
        ],
        "epsilon_ionic_avg": 3.480129286666667,
        "epsilon_ionic_eig": [
            3.9089606749734935,
            3.122148785026531,
            3.4092783999999763
        ],
        "epsilon_electronic": [
            [
                3.30567531,
                0.0,
                -0.00068676
            ],
            [
                0.0,
                3.29418257,
                0.0
            ],
            [
                -0.00068108,
                0.0,
                3.18133782
            ]
        ],
        "epsilon_electronic_avg": 3.2603985666666664,
        "epsilon_electronic_eig": [
            3.3056790717322833,
            3.1813340582677165,
            3.29418257
        ]
    },
    "phonon": {
        "lowest_freq": -0.05334124108060371,
        "frequency": [
            -0.05334124108060371,
            -0.04837930442118993,
            -0.01953121601145205,
            3.5436762402453157,
            3.72758613787166,
            3.847001725392086,
            4.168925172685425,
            5.36144966177539,
            5.653654556457332,
            6.009614720783281,
            6.298924754299818,
            6.4802002520619295,
            7.102691656739905,
            7.8647058828809255,
            8.691121453388382,
            9.013880781529473,
            9.235327434105768,
            9.493123201781753,
            9.514188946175024,
            10.567665402451599,
            11.591773383370283,
            11.835260152779126,
            12.23219693518341,
            12.242689902664738,
            12.533407802559408,
            12.574096934373117,
            12.749365869788031,
            12.841872982160401,
            12.934466548743815,
            13.071890940013166,
            13.24292635789501,
            13.423945415815915,
            13.427156619819819,
            13.746675137752511,
            13.898192751034834,
            14.265239288020005,
            14.410698361865341,
            14.444316842132318,
            14.774834733772325,
            16.06801943992577,
            20.692184136560588,
            20.823006279061655,
            20.986914144174342,
            21.06210407445303,
            21.293400610309696,
            21.915176044148485,
            21.98502455879728,
            22.09694793549581
        ]
    },
    "born_effective_charge": {
        "avg_abs_trace": 1.7735045833333334,
        "tensors": [
            [
                [
                    1.05126,
                    0.09737,
                    0.03426
                ],
                [
                    -0.02975,
                    0.94622,
                    0.0519
                ],
                [
                    -0.029,
                    -0.01502,
                    1.12363
                ]
            ],
            [
                [
                    1.03308,
                    0.01284,
                    -0.08624
                ],
                [
                    0.00211,
                    1.03942,
                    0.10119
                ],
                [
                    0.07974,
                    -0.06377,
                    1.00543
                ]
            ],
            [
                [
                    1.03308,
                    -0.01284,
                    -0.08624
                ],
                [
                    -0.00211,
                    1.03942,
                    -0.10119
                ],
                [
                    0.07974,
                    0.06377,
                    1.00543
                ]
            ],
            [
                [
                    1.05126,
                    -0.09737,
                    0.03426
                ],
                [
                    0.02975,
                    0.94622,
                    -0.0519
                ],
                [
                    -0.029,
                    0.01502,
                    1.12363
                ]
            ],
            [
                [
                    2.02739,
                    0.12396,
                    0.2074
                ],
                [
                    -0.04492,
                    2.10769,
                    -0.21762
                ],
                [
                    -0.22499,
                    0.18025,
                    1.82861
                ]
            ],
            [
                [
                    2.02739,
                    -0.12396,
                    0.2074
                ],
                [
                    0.04492,
                    2.10769,
                    0.21762
                ],
                [
                    -0.22499,
                    -0.18025,
                    1.82861
                ]
            ],
            [
                [
                    3.13653,
                    -0.12768,
                    -0.23413
                ],
                [
                    0.04152,
                    3.02456,
                    -0.28793
                ],
                [
                    0.2659,
                    0.18417,
                    2.95824
                ]
            ],
            [
                [
                    3.13653,
                    0.12768,
                    -0.23413
                ],
                [
                    -0.04152,
                    3.02456,
                    0.28793
                ],
                [
                    0.2659,
                    -0.18417,
                    2.95824
                ]
            ],
            [
                [
                    -2.29939,
                    0.0827,
                    -0.17746
                ],
                [
                    0.0747,
                    -1.36935,
                    0.0237
                ],
                [
                    -0.23902,
                    0.1664,
                    -1.61668
                ]
            ],
            [
                [
                    -1.95918,
                    0.15742,
                    0.35841
                ],
                [
                    0.11185,
                    -1.52129,
                    -0.14127
                ],
                [
                    0.29803,
                    -0.32814,
                    -1.85264
                ]
            ],
            [
                [
                    -2.29939,
                    -0.0827,
                    -0.17746
                ],
                [
                    -0.0747,
                    -1.36935,
                    -0.0237
                ],
                [
                    -0.23902,
                    -0.1664,
                    -1.61668
                ]
            ],
            [
                [
                    -1.95918,
                    -0.15742,
                    0.35841
                ],
                [
                    -0.11185,
                    -1.52129,
                    0.14127
                ],
                [
                    0.29803,
                    0.32814,
                    -1.85264
                ]
            ],
            [
                [
                    -1.49149,
                    -0.09918,
                    0.05382
                ],
                [
                    -0.16237,
                    -2.22336,
                    -0.16507
                ],
                [
                    0.03269,
                    -0.29444,
                    -1.60964
                ]
            ],
            [
                [
                    -1.49149,
                    0.09918,
                    0.05382
                ],
                [
                    0.16237,
                    -2.22336,
                    0.16507
                ],
                [
                    0.03269,
                    0.29444,
                    -1.60964
                ]
            ],
            [
                [
                    -1.49818,
                    0.03984,
                    -0.15606
                ],
                [
                    0.01703,
                    -2.00389,
                    0.35772
                ],
                [
                    -0.18336,
                    0.40333,
                    -1.83696
                ]
            ],
            [
                [
                    -1.49818,
                    -0.03984,
                    -0.15606
                ],
                [
                    -0.01703,
                    -2.00389,
                    -0.35771
                ],
                [
                    -0.18336,
                    -0.40333,
                    -1.83696
                ]
            ]
        ]
    },
    "band_gap": 3.3013,
    "is_direct": true,
    "formula": "Li2ZnGeO4"
}