{
    "mp_id": "mp-8263",
    "nelements": 4,
    "nsites": 14,
    "elements": [
        "B",
        "K",
        "Na",
        "O"
    ],
    "structure": {
        "@module": "pymatgen.core.structure",
        "@class": "Structure",
        "charge": null,
        "lattice": {
            "matrix": [
                [
                    5.57235758,
                    0.0,
                    0.0
                ],
                [
                    0.0,
                    5.96545872,
                    0.0
                ],
                [
                    0.0,
                    0.0,
                    5.52321039
                ]
            ],
            "a": 5.57235758,
            "b": 5.96545872,
            "c": 5.52321039,
            "alpha": 90.0,
            "beta": 90.0,
            "gamma": 90.0,
            "volume": 183.60073224557658
        },
        "sites": [
            {
                "species": [
                    {
                        "element": "K",
                        "occu": 1
                    }
                ],
                "abc": [
                    0.5,
                    0.5,
                    0.91800251
                ],
                "xyz": [
                    2.78617879,
                    2.98272936,
                    5.070321001278079
                ],
                "label": "K",
                "properties": {}
            },
            {
                "species": [
                    {
                        "element": "K",
                        "occu": 1
                    }
                ],
                "abc": [
                    0.0,
                    0.0,
                    0.08199749
                ],
                "xyz": [
                    0.0,
                    0.0,
                    0.45288938872192114
                ],
                "label": "K",
                "properties": {}
            },
            {
                "species": [
                    {
                        "element": "Na",
                        "occu": 1
                    }
                ],
                "abc": [
                    0.5,
                    0.77035934,
                    0.37283963
                ],
                "xyz": [
                    2.78617879,
                    4.595546842336445,
                    2.0592717182197555
                ],
                "label": "Na",
                "properties": {}
            },
            {
                "species": [
                    {
                        "element": "Na",
                        "occu": 1
                    }
                ],
                "abc": [
                    0.5,
                    0.22964066,
                    0.37283963
                ],
                "xyz": [
                    2.78617879,
                    1.3699118776635553,
                    2.0592717182197555
                ],
                "label": "Na",
                "properties": {}
            },
            {
                "species": [
                    {
                        "element": "Na",
                        "occu": 1
                    }
                ],
                "abc": [
                    0.0,
                    0.72964066,
                    0.62716037
                ],
                "xyz": [
                    0.0,
                    4.352641237663556,
                    3.4639386717802445
                ],
                "label": "Na",
                "properties": {}
            },
            {
                "species": [
                    {
                        "element": "Na",
                        "occu": 1
                    }
                ],
                "abc": [
                    0.0,
                    0.27035934,
                    0.62716037
                ],
                "xyz": [
                    0.0,
                    1.6128174823364447,
                    3.4639386717802445
                ],
                "label": "Na",
                "properties": {}
            },
            {
                "species": [
                    {
                        "element": "B",
                        "occu": 1
                    }
                ],
                "abc": [
                    0.5,
                    0.0,
                    0.79317247
                ],
                "xyz": [
                    2.78617879,
                    0.0,
                    4.380858427365963
                ],
                "label": "B",
                "properties": {}
            },
            {
                "species": [
                    {
                        "element": "B",
                        "occu": 1
                    }
                ],
                "abc": [
                    0.0,
                    0.5,
                    0.20682753
                ],
                "xyz": [
                    0.0,
                    2.98272936,
                    1.1423519626340368
                ],
                "label": "B",
                "properties": {}
            },
            {
                "species": [
                    {
                        "element": "O",
                        "occu": 1
                    }
                ],
                "abc": [
                    0.28587441,
                    0.0,
                    0.66039781
                ],
                "xyz": [
                    1.592994435491528,
                    0.0,
                    3.647516045725246
                ],
                "label": "O",
                "properties": {}
            },
            {
                "species": [
                    {
                        "element": "O",
                        "occu": 1
                    }
                ],
                "abc": [
                    0.21412559,
                    0.5,
                    0.33960219
                ],
                "xyz": [
                    1.1931843545084724,
                    2.98272936,
                    1.8756943442747542
                ],
                "label": "O",
                "properties": {}
            },
            {
                "species": [
                    {
                        "element": "O",
                        "occu": 1
                    }
                ],
                "abc": [
                    0.5,
                    0.0,
                    0.0440679
                ],
                "xyz": [
                    2.78617879,
                    0.0,
                    0.243396283145481
                ],
                "label": "O",
                "properties": {}
            },
            {
                "species": [
                    {
                        "element": "O",
                        "occu": 1
                    }
                ],
                "abc": [
                    0.0,
                    0.5,
                    0.9559321
                ],
                "xyz": [
                    0.0,
                    2.98272936,
                    5.279814106854519
                ],
                "label": "O",
                "properties": {}
            },
            {
                "species": [
                    {
                        "element": "O",
                        "occu": 1
                    }
                ],
                "abc": [
                    0.78587441,
                    0.5,
                    0.33960219
                ],
                "xyz": [
                    4.379173225491528,
                    2.98272936,
                    1.8756943442747542
                ],
                "label": "O",
                "properties": {}
            },
            {
                "species": [
                    {
                        "element": "O",
                        "occu": 1
                    }
                ],
                "abc": [
                    0.71412559,
                    0.0,
                    0.66039781
                ],
                "xyz": [
                    3.979363144508472,
                    0.0,
                    3.647516045725246
                ],
                "label": "O",
                "properties": {}
            }
        ]
    },
    "spacegroup": {
        "source": "spglib",
        "symbol": "Pmmn",
        "number": 59,
        "point_group": "mmm",
        "crystal_system": "orthorhombic",
        "hall": "P 2 2ab -1ab"
    },
    "dielectric": {
        "epsilon_ionic": [
            [
                3.70003743,
                -2e-08,
                7e-08
            ],
            [
                -2e-08,
                4.39576729,
                -2e-08
            ],
            [
                7e-08,
                -2e-08,
                4.04366047
            ]
        ],
        "epsilon_ionic_avg": 4.046488396666665,
        "epsilon_ionic_eig": [
            3.700037429999986,
            4.043660470000009,
            4.395767290000001
        ],
        "epsilon_electronic": [
            [
                2.56179643,
                0.0,
                0.0
            ],
            [
                0.0,
                2.33279016,
                0.0
            ],
            [
                0.0,
                0.0,
                2.57409261
            ]
        ],
        "epsilon_electronic_avg": 2.489559733333333,
        "epsilon_electronic_eig": [
            2.56179643,
            2.33279016,
            2.57409261
        ]
    },
    "phonon": {
        "lowest_freq": -0.29870355358820616,
        "frequency": [
            -0.29870355358820616,
            -0.1330545320488062,
            -0.05625412131146955,
            3.078048004669937,
            3.2254109794808135,
            3.408889321963537,
            3.5037522282519324,
            4.187687459250233,
            4.200202131541877,
            4.328704516513165,
            4.472386853473658,
            4.743018150700023,
            5.267550159368013,
            5.781314653254458,
            5.911675386556012,
            6.035234222446706,
            6.467708727814685,
            6.50577196441683,
            6.556120266333752,
            6.597927012293271,
            6.969218038942961,
            7.651726283576041,
            7.702353458519685,
            7.77723054543479,
            8.150048818474708,
            8.184138878474107,
            8.185816614542505,
            8.231258217944712,
            8.558059581641587,
            9.098639650011412,
            15.959844604217835,
            16.17999116265307,
            17.647601773723324,
            17.65102523959741,
            22.808947061385417,
            22.874737234540504,
            26.513296533502977,
            26.57834091568618,
            34.207873408754004,
            35.20483972231585,
            36.93378674794519,
            36.97394218601243
        ]
    },
    "born_effective_charge": {
        "avg_abs_trace": 1.351764761904762,
        "tensors": [
            [
                [
                    1.27342,
                    -0.0,
                    -5e-05
                ],
                [
                    -0.0,
                    1.17116,
                    7e-05
                ],
                [
                    -0.0,
                    0.0,
                    1.01336
                ]
            ],
            [
                [
                    1.27342,
                    -0.0,
                    5e-05
                ],
                [
                    -0.0,
                    1.17116,
                    -7e-05
                ],
                [
                    -0.0,
                    0.0,
                    1.0134
                ]
            ],
            [
                [
                    0.93353,
                    3e-05,
                    -0.0
                ],
                [
                    -0.0,
                    0.97156,
                    0.0759
                ],
                [
                    -0.0,
                    0.08212,
                    1.04643
                ]
            ],
            [
                [
                    0.93353,
                    -3e-05,
                    -0.0
                ],
                [
                    -0.0,
                    0.97157,
                    -0.07588
                ],
                [
                    -0.0,
                    -0.08212,
                    1.04643
                ]
            ],
            [
                [
                    0.93353,
                    -3e-05,
                    0.0
                ],
                [
                    -0.0,
                    0.97157,
                    0.07588
                ],
                [
                    -0.0,
                    0.08217,
                    1.04642
                ]
            ],
            [
                [
                    0.93353,
                    3e-05,
                    0.0
                ],
                [
                    -0.0,
                    0.97156,
                    -0.0759
                ],
                [
                    -0.0,
                    -0.08217,
                    1.04642
                ]
            ],
            [
                [
                    2.40442,
                    -0.0,
                    5e-05
                ],
                [
                    -0.0,
                    0.13092,
                    -0.0
                ],
                [
                    -0.0,
                    0.0,
                    2.29702
                ]
            ],
            [
                [
                    2.40442,
                    -0.0,
                    -5e-05
                ],
                [
                    -0.0,
                    0.13092,
                    0.0
                ],
                [
                    -0.0,
                    0.0,
                    2.29737
                ]
            ],
            [
                [
                    -2.06603,
                    -0.0,
                    -0.4017
                ],
                [
                    -3e-05,
                    -1.04989,
                    -3e-05
                ],
                [
                    -0.42476,
                    0.0,
                    -1.57226
                ]
            ],
            [
                [
                    -2.06636,
                    -0.0,
                    -0.40171
                ],
                [
                    3e-05,
                    -1.04989,
                    3e-05
                ],
                [
                    -0.42503,
                    0.0,
                    -1.5726
                ]
            ],
            [
                [
                    -1.41251,
                    -0.0,
                    0.00034
                ],
                [
                    -0.0,
                    -1.14542,
                    -0.00011
                ],
                [
                    -0.0,
                    0.0,
                    -2.25824
                ]
            ],
            [
                [
                    -1.41251,
                    -0.0,
                    -0.00034
                ],
                [
                    -0.0,
                    -1.14542,
                    0.00011
                ],
                [
                    -0.0,
                    0.0,
                    -2.25889
                ]
            ],
            [
                [
                    -2.06603,
                    -0.0,
                    0.4017
                ],
                [
                    -3e-05,
                    -1.04989,
                    3e-05
                ],
                [
                    0.42503,
                    0.0,
                    -1.5726
                ]
            ],
            [
                [
                    -2.06636,
                    -0.0,
                    0.40171
                ],
                [
                    3e-05,
                    -1.04989,
                    -3e-05
                ],
                [
                    0.42476,
                    0.0,
                    -1.57226
                ]
            ]
        ]
    },
    "band_gap": 2.9770999999999996,
    "is_direct": false,
    "formula": "KNa2BO3"
}