{
    "mp_id": "mp-8070",
    "nelements": 4,
    "nsites": 16,
    "elements": [
        "Be",
        "Li",
        "O",
        "Si"
    ],
    "structure": {
        "@module": "pymatgen.core.structure",
        "@class": "Structure",
        "charge": null,
        "lattice": {
            "matrix": [
                [
                    4.70433576,
                    0.0,
                    7.96e-06
                ],
                [
                    0.0,
                    4.94558272,
                    0.0
                ],
                [
                    -4.70483842,
                    0.0,
                    6.10118946
                ]
            ],
            "a": 4.704335760006734,
            "b": 4.94558272,
            "c": 7.704545241941485,
            "alpha": 90.0,
            "beta": 127.63696353347413,
            "gamma": 90.0,
            "volume": 141.9485168390798
        },
        "sites": [
            {
                "species": [
                    {
                        "element": "Li",
                        "occu": 1
                    }
                ],
                "abc": [
                    0.49793362,
                    0.17617296,
                    0.49956774
                ],
                "xyz": [
                    -0.007938561872319116,
                    0.8712779467072511,
                    3.0479613933956355
                ],
                "label": "Li",
                "properties": {}
            },
            {
                "species": [
                    {
                        "element": "Li",
                        "occu": 1
                    }
                ],
                "abc": [
                    0.49793362,
                    0.82382704,
                    0.99956774
                ],
                "xyz": [
                    -2.3603577718723194,
                    4.074304773292749,
                    6.098556123395635
                ],
                "label": "Li",
                "properties": {}
            },
            {
                "species": [
                    {
                        "element": "Li",
                        "occu": 1
                    }
                ],
                "abc": [
                    0.24528421,
                    0.33468458,
                    0.7471086
                ],
                "xyz": [
                    -2.361125964726062,
                    1.6552102754984577,
                    4.558253068257668
                ],
                "label": "Li",
                "properties": {}
            },
            {
                "species": [
                    {
                        "element": "Li",
                        "occu": 1
                    }
                ],
                "abc": [
                    0.24528421,
                    0.66531542,
                    0.2471086
                ],
                "xyz": [
                    -0.008706754726062194,
                    3.2903724445015423,
                    1.5076583382576676
                ],
                "label": "Li",
                "properties": {}
            },
            {
                "species": [
                    {
                        "element": "Be",
                        "occu": 1
                    }
                ],
                "abc": [
                    0.75696502,
                    0.32059687,
                    0.2484255
                ],
                "xyz": [
                    2.392215775747405,
                    1.5855383403580863,
                    1.5156970676367891
                ],
                "label": "Be",
                "properties": {}
            },
            {
                "species": [
                    {
                        "element": "Be",
                        "occu": 1
                    }
                ],
                "abc": [
                    0.75696502,
                    0.67940313,
                    0.7484255
                ],
                "xyz": [
                    0.039796565747405754,
                    3.3600443796419133,
                    4.566291797636788
                ],
                "label": "Be",
                "properties": {}
            },
            {
                "species": [
                    {
                        "element": "Si",
                        "occu": 1
                    }
                ],
                "abc": [
                    0.00594227,
                    0.17921902,
                    0.99724569
                ],
                "xyz": [
                    -4.663925403234835,
                    0.8863424884073344,
                    6.0843849401588965
                ],
                "label": "Si",
                "properties": {}
            },
            {
                "species": [
                    {
                        "element": "Si",
                        "occu": 1
                    }
                ],
                "abc": [
                    0.00594227,
                    0.82078098,
                    0.49724569
                ],
                "xyz": [
                    -2.3115061932348344,
                    4.059240231592666,
                    3.0337902101588967
                ],
                "label": "Si",
                "properties": {}
            },
            {
                "species": [
                    {
                        "element": "O",
                        "occu": 1
                    }
                ],
                "abc": [
                    0.38364628,
                    0.19955299,
                    0.02784647
                ],
                "xyz": [
                    1.6737877722775956,
                    0.9869058190683329,
                    0.169899643086595
                ],
                "label": "O",
                "properties": {}
            },
            {
                "species": [
                    {
                        "element": "O",
                        "occu": 1
                    }
                ],
                "abc": [
                    0.07267333,
                    0.69959262,
                    0.71752749
                ],
                "xyz": [
                    -3.033971157240885,
                    3.4598931725115265,
                    4.377771737727962
                ],
                "label": "O",
                "properties": {}
            },
            {
                "species": [
                    {
                        "element": "O",
                        "occu": 1
                    }
                ],
                "abc": [
                    0.88445296,
                    0.85992719,
                    0.96661552
                ],
                "xyz": [
                    -0.38700614809842815,
                    4.252841051322156,
                    5.8975114627419805
                ],
                "label": "O",
                "properties": {}
            },
            {
                "species": [
                    {
                        "element": "O",
                        "occu": 1
                    }
                ],
                "abc": [
                    0.38364628,
                    0.80044701,
                    0.52784647
                ],
                "xyz": [
                    -0.6786314377224041,
                    3.958676900931667,
                    3.2204943730865945
                ],
                "label": "O",
                "properties": {}
            },
            {
                "species": [
                    {
                        "element": "O",
                        "occu": 1
                    }
                ],
                "abc": [
                    0.88445296,
                    0.14007281,
                    0.46661552
                ],
                "xyz": [
                    1.9654130619015717,
                    0.6927416686778431,
                    2.8469167327419806
                ],
                "label": "O",
                "properties": {}
            },
            {
                "species": [
                    {
                        "element": "O",
                        "occu": 1
                    }
                ],
                "abc": [
                    0.69810531,
                    0.35832552,
                    0.78066399
                ],
                "xyz": [
                    -0.38877615918360986,
                    1.7721284998470144,
                    4.762984464507813
                ],
                "label": "O",
                "properties": {}
            },
            {
                "species": [
                    {
                        "element": "O",
                        "occu": 1
                    }
                ],
                "abc": [
                    0.69810531,
                    0.64167448,
                    0.28066399
                ],
                "xyz": [
                    1.96364305081639,
                    3.1734542201529856,
                    1.7123897345078127
                ],
                "label": "O",
                "properties": {}
            },
            {
                "species": [
                    {
                        "element": "O",
                        "occu": 1
                    }
                ],
                "abc": [
                    0.07267333,
                    0.30040738,
                    0.21752749
                ],
                "xyz": [
                    -0.6815519472408849,
                    1.4856895474884737,
                    1.327177007727962
                ],
                "label": "O",
                "properties": {}
            }
        ]
    },
    "spacegroup": {
        "source": "spglib",
        "symbol": "Pc",
        "number": 7,
        "point_group": "m",
        "crystal_system": "monoclinic",
        "hall": "P -2yc"
    },
    "dielectric": {
        "epsilon_ionic": [
            [
                3.99595881,
                9e-08,
                0.01550592
            ],
            [
                9e-08,
                3.47021317,
                -1.2e-07
            ],
            [
                0.01550592,
                -1.2e-07,
                3.04861946
            ]
        ],
        "epsilon_ionic_avg": 3.5049304800000005,
        "epsilon_ionic_eig": [
            3.9962125408048474,
            3.0483657291951327,
            3.4702131700000214
        ],
        "epsilon_electronic": [
            [
                2.82997693,
                0.0,
                0.00488029
            ],
            [
                0.0,
                2.8104852,
                0.0
            ],
            [
                0.00488482,
                0.0,
                2.76749022
            ]
        ],
        "epsilon_electronic_avg": 2.8026507833333336,
        "epsilon_electronic_eig": [
            2.8303561392517147,
            2.7671110107482852,
            2.8104852
        ]
    },
    "phonon": {
        "lowest_freq": -0.03640177615302157,
        "frequency": [
            -0.03640177615302157,
            -0.027703605048951436,
            -0.025330104221187817,
            5.939604973296131,
            6.719103738543141,
            6.8252885323247385,
            7.9138713402845955,
            8.454963722864225,
            8.90411447181626,
            9.064980645759997,
            9.828879764916024,
            10.13515890912475,
            10.773839015682793,
            11.347854946735714,
            11.473144932880317,
            11.643108621549846,
            11.708330725726842,
            11.969698742294502,
            12.75292309629828,
            12.814361224063415,
            13.326209666372439,
            13.510549335417492,
            13.550436503580865,
            14.06605541676632,
            14.235590908370442,
            14.389250073429906,
            14.583330183432158,
            14.67262607686196,
            15.56068687478622,
            15.75338451285735,
            15.761783100533513,
            16.474765291429087,
            16.98717084330919,
            17.53717444455112,
            20.700858847265653,
            20.76598268116794,
            21.186911168704373,
            21.248894265749065,
            21.72978686547614,
            22.583109983096197,
            25.304264383156237,
            26.116473221531205,
            26.256301515882164,
            26.56690711738347,
            26.88283170225876,
            26.9727882943742,
            27.548983537224466,
            28.81889165187704
        ]
    },
    "born_effective_charge": {
        "avg_abs_trace": 1.71952875,
        "tensors": [
            [
                [
                    1.06158,
                    -0.04878,
                    -0.00192
                ],
                [
                    -0.00565,
                    0.98123,
                    0.00459
                ],
                [
                    -0.00634,
                    -0.00322,
                    1.07425
                ]
            ],
            [
                [
                    1.06158,
                    0.04878,
                    -0.00192
                ],
                [
                    0.00565,
                    0.98123,
                    -0.00459
                ],
                [
                    -0.00634,
                    0.00322,
                    1.07425
                ]
            ],
            [
                [
                    1.05004,
                    -0.00664,
                    0.03568
                ],
                [
                    0.0156,
                    1.02683,
                    0.0238
                ],
                [
                    -0.0216,
                    -0.03148,
                    1.00742
                ]
            ],
            [
                [
                    1.05004,
                    0.00664,
                    0.03568
                ],
                [
                    -0.0156,
                    1.02683,
                    -0.0238
                ],
                [
                    -0.0216,
                    0.03148,
                    1.00742
                ]
            ],
            [
                [
                    1.85566,
                    -0.07202,
                    -0.14834
                ],
                [
                    0.03386,
                    1.94635,
                    -0.1118
                ],
                [
                    0.15059,
                    0.14534,
                    1.7871
                ]
            ],
            [
                [
                    1.85566,
                    0.07202,
                    -0.14834
                ],
                [
                    -0.03386,
                    1.94635,
                    0.1118
                ],
                [
                    0.15059,
                    -0.14534,
                    1.7871
                ]
            ],
            [
                [
                    3.02436,
                    0.03941,
                    0.09574
                ],
                [
                    -0.01426,
                    2.91757,
                    -0.08419
                ],
                [
                    -0.08887,
                    0.11484,
                    2.90196
                ]
            ],
            [
                [
                    3.02436,
                    -0.03941,
                    0.09574
                ],
                [
                    0.01426,
                    2.91757,
                    0.08419
                ],
                [
                    -0.08887,
                    -0.11484,
                    2.90196
                ]
            ],
            [
                [
                    -2.17498,
                    0.11266,
                    0.2976
                ],
                [
                    0.09375,
                    -1.34787,
                    -0.07081
                ],
                [
                    0.28516,
                    -0.15626,
                    -1.6273
                ]
            ],
            [
                [
                    -1.95991,
                    0.12539,
                    -0.35189
                ],
                [
                    0.12402,
                    -1.40918,
                    0.13182
                ],
                [
                    -0.36827,
                    0.23181,
                    -1.76828
                ]
            ],
            [
                [
                    -1.43072,
                    0.07041,
                    -0.05274
                ],
                [
                    0.09721,
                    -2.1076,
                    -0.30639
                ],
                [
                    -0.07588,
                    -0.30217,
                    -1.61998
                ]
            ],
            [
                [
                    -2.17498,
                    -0.11266,
                    0.2976
                ],
                [
                    -0.09375,
                    -1.34787,
                    0.07081
                ],
                [
                    0.28516,
                    0.15626,
                    -1.6273
                ]
            ],
            [
                [
                    -1.43072,
                    -0.07041,
                    -0.05274
                ],
                [
                    -0.09721,
                    -2.1076,
                    0.3064
                ],
                [
                    -0.07588,
                    0.30217,
                    -1.61998
                ]
            ],
            [
                [
                    -1.42603,
                    -0.00606,
                    0.12588
                ],
                [
                    0.01992,
                    -2.00733,
                    0.36438
                ],
                [
                    0.1252,
                    0.41109,
                    -1.75516
                ]
            ],
            [
                [
                    -1.42603,
                    0.00606,
                    0.12588
                ],
                [
                    -0.01992,
                    -2.00733,
                    -0.36438
                ],
                [
                    0.1252,
                    -0.41109,
                    -1.75516
                ]
            ],
            [
                [
                    -1.95991,
                    -0.12539,
                    -0.35189
                ],
                [
                    -0.12402,
                    -1.40918,
                    -0.13182
                ],
                [
                    -0.36827,
                    -0.23181,
                    -1.76828
                ]
            ]
        ]
    },
    "band_gap": 5.9582999999999995,
    "is_direct": false,
    "formula": "Li2BeSiO4"
}