{
    "mp_id": "mp-8294",
    "nelements": 4,
    "nsites": 18,
    "elements": [
        "Cs",
        "Li",
        "O",
        "Ti"
    ],
    "structure": {
        "@module": "pymatgen.core.structure",
        "@class": "Structure",
        "charge": null,
        "lattice": {
            "matrix": [
                [
                    5.82648767,
                    -0.00096729,
                    0.00077751
                ],
                [
                    0.39226481,
                    5.8932199,
                    0.00384854
                ],
                [
                    2.59897069,
                    0.93415939,
                    8.87348375
                ]
            ],
            "a": 5.826487802169826,
            "b": 5.906261701125381,
            "c": 9.293331817756123,
            "alpha": 83.13714842282673,
            "beta": 73.75349484946022,
            "gamma": 86.20140052125284,
            "volume": 304.65758444501836
        },
        "sites": [
            {
                "species": [
                    {
                        "element": "Cs",
                        "occu": 1
                    }
                ],
                "abc": [
                    0.46534434,
                    0.85192139,
                    0.71927982
                ],
                "xyz": [
                    4.914889011586049,
                    5.6920319637475325,
                    6.386158257896989
                ],
                "label": "Cs",
                "properties": {}
            },
            {
                "species": [
                    {
                        "element": "Cs",
                        "occu": 1
                    }
                ],
                "abc": [
                    0.53465566,
                    0.14807861,
                    0.28072018
                ],
                "xyz": [
                    3.90283415841395,
                    1.1343800362524679,
                    2.4919515421030107
                ],
                "label": "Cs",
                "properties": {}
            },
            {
                "species": [
                    {
                        "element": "Cs",
                        "occu": 1
                    }
                ],
                "abc": [
                    0.78232902,
                    0.72417049,
                    0.0154194
                ],
                "xyz": [
                    4.882371557238026,
                    4.281343380921162,
                    0.1402190630686748
                ],
                "label": "Cs",
                "properties": {}
            },
            {
                "species": [
                    {
                        "element": "Cs",
                        "occu": 1
                    }
                ],
                "abc": [
                    0.21767098,
                    0.27582951,
                    0.9845806
                ],
                "xyz": [
                    3.9353516127619734,
                    2.545068619078839,
                    8.737890736931327
                ],
                "label": "Cs",
                "properties": {}
            },
            {
                "species": [
                    {
                        "element": "Li",
                        "occu": 1
                    }
                ],
                "abc": [
                    0.92812855,
                    0.1803902,
                    0.44048806
                ],
                "xyz": [
                    6.6233058375138025,
                    1.473667404371734,
                    3.9100795106082438
                ],
                "label": "Li",
                "properties": {}
            },
            {
                "species": [
                    {
                        "element": "Li",
                        "occu": 1
                    }
                ],
                "abc": [
                    0.07187145,
                    0.8196098,
                    0.55951194
                ],
                "xyz": [
                    2.194417332486198,
                    5.352744595628266,
                    4.968030289391757
                ],
                "label": "Li",
                "properties": {}
            },
            {
                "species": [
                    {
                        "element": "Li",
                        "occu": 1
                    }
                ],
                "abc": [
                    0.69261488,
                    0.58592617,
                    0.42390075
                ],
                "xyz": [
                    5.3670559008466245,
                    3.8483126715680505,
                    3.7642698920354527
                ],
                "label": "Li",
                "properties": {}
            },
            {
                "species": [
                    {
                        "element": "Li",
                        "occu": 1
                    }
                ],
                "abc": [
                    0.30738512,
                    0.41407383,
                    0.57609925
                ],
                "xyz": [
                    3.450667269153375,
                    2.9780993284319495,
                    5.113839907964547
                ],
                "label": "Li",
                "properties": {}
            },
            {
                "species": [
                    {
                        "element": "Ti",
                        "occu": 1
                    }
                ],
                "abc": [
                    0.14111626,
                    0.68295909,
                    0.28489998
                ],
                "xyz": [
                    1.8305596642047233,
                    4.290833591254567,
                    2.5307934575848665
                ],
                "label": "Ti",
                "properties": {}
            },
            {
                "species": [
                    {
                        "element": "Ti",
                        "occu": 1
                    }
                ],
                "abc": [
                    0.85888374,
                    0.31704091,
                    0.71510002
                ],
                "xyz": [
                    6.987163505795277,
                    2.5355784087454323,
                    6.347316342415133
                ],
                "label": "Ti",
                "properties": {}
            },
            {
                "species": [
                    {
                        "element": "O",
                        "occu": 1
                    }
                ],
                "abc": [
                    0.02730056,
                    0.57494448,
                    0.71339478
                ],
                "xyz": [
                    2.2386889870508417,
                    4.054672275886453,
                    6.33253091095229
                ],
                "label": "O",
                "properties": {}
            },
            {
                "species": [
                    {
                        "element": "O",
                        "occu": 1
                    }
                ],
                "abc": [
                    0.97269944,
                    0.42505552,
                    0.28660522
                ],
                "xyz": [
                    6.579034182949157,
                    2.771739724113546,
                    2.54557888904771
                ],
                "label": "O",
                "properties": {}
            },
            {
                "species": [
                    {
                        "element": "O",
                        "occu": 1
                    }
                ],
                "abc": [
                    0.89802121,
                    0.86538453,
                    0.40277422
                ],
                "xyz": [
                    6.618567798168482,
                    5.4752880060748526,
                    3.5780391835389986
                ],
                "label": "O",
                "properties": {}
            },
            {
                "species": [
                    {
                        "element": "O",
                        "occu": 1
                    }
                ],
                "abc": [
                    0.10197879,
                    0.13461547,
                    0.59722578
                ],
                "xyz": [
                    2.199155371831518,
                    1.3511239939251483,
                    5.300070616461002
                ],
                "label": "O",
                "properties": {}
            },
            {
                "species": [
                    {
                        "element": "O",
                        "occu": 1
                    }
                ],
                "abc": [
                    0.26469592,
                    0.79743344,
                    0.08807432
                ],
                "xyz": [
                    2.083955167230233,
                    4.781470032862864,
                    0.7848008055282368
                ],
                "label": "O",
                "properties": {}
            },
            {
                "species": [
                    {
                        "element": "O",
                        "occu": 1
                    }
                ],
                "abc": [
                    0.73530408,
                    0.20256656,
                    0.91192568
                ],
                "xyz": [
                    6.733768002769766,
                    2.044941967137136,
                    8.093308994471762
                ],
                "label": "O",
                "properties": {}
            },
            {
                "species": [
                    {
                        "element": "O",
                        "occu": 1
                    }
                ],
                "abc": [
                    0.37291455,
                    0.63968353,
                    0.39380401
                ],
                "xyz": [
                    3.4471924454886445,
                    4.137310705944332,
                    3.497165275864154
                ],
                "label": "O",
                "properties": {}
            },
            {
                "species": [
                    {
                        "element": "O",
                        "occu": 1
                    }
                ],
                "abc": [
                    0.62708545,
                    0.36031647,
                    0.60619599
                ],
                "xyz": [
                    5.370530724511355,
                    2.6891012940556687,
                    5.380944524135846
                ],
                "label": "O",
                "properties": {}
            }
        ]
    },
    "spacegroup": {
        "source": "spglib",
        "symbol": "P-1",
        "number": 2,
        "point_group": "-1",
        "crystal_system": "triclinic",
        "hall": "-P 1"
    },
    "dielectric": {
        "epsilon_ionic": [
            [
                6.47450336,
                -0.19008871,
                -1.63699686
            ],
            [
                -0.19008871,
                6.73384104,
                0.81586882
            ],
            [
                -1.63699686,
                0.81586882,
                9.33642984
            ]
        ],
        "epsilon_ionic_avg": 7.514924746666669,
        "epsilon_ionic_eig": [
            10.270834179490892,
            5.700528305431223,
            6.573411755077891
        ],
        "epsilon_electronic": [
            [
                3.42074289,
                0.01047061,
                -0.00782919
            ],
            [
                0.01047252,
                3.34559234,
                0.04604339
            ],
            [
                -0.00782973,
                0.04604634,
                3.42969475
            ]
        ],
        "epsilon_electronic_avg": 3.39867666,
        "epsilon_electronic_eig": [
            3.323613884154321,
            3.422109778856532,
            3.4503063169891477
        ]
    },
    "phonon": {
        "lowest_freq": -0.20125111863804815,
        "frequency": [
            -0.20125111863804815,
            -0.17448415626090252,
            -0.09634671545752684,
            1.2248859941891277,
            1.4452440413153018,
            1.477763047112471,
            1.6958547005721842,
            1.849120521355601,
            1.9450767004198621,
            2.072216081939604,
            2.2564470862577446,
            2.592305049152757,
            2.7605072366682375,
            3.0237232082921532,
            3.025219998405615,
            3.3217861109380555,
            3.8184546999668165,
            4.306630067950781,
            4.35805049911567,
            4.56303074567926,
            5.00628732939662,
            5.175634517244015,
            5.4544700904093615,
            6.489635893409673,
            7.082036132580039,
            7.725344835067749,
            7.931271331560603,
            8.294400236231198,
            8.434450272249244,
            8.931793313477238,
            9.183590339813403,
            9.472044601839743,
            10.136230856353643,
            10.35458160908658,
            10.88065862802908,
            10.881225382848015,
            11.263032958898172,
            11.660158845850495,
            11.899308957103969,
            12.682022509787906,
            13.23041018924409,
            14.089927532623362,
            14.30288959661158,
            15.70972953947137,
            15.915041049737615,
            17.067307253906883,
            19.449008129846362,
            20.094223235711667,
            20.19670659892387,
            20.995724977667606,
            21.33408144569717,
            21.466491382038182,
            22.28665872112263,
            23.084974195808154
        ]
    },
    "born_effective_charge": {
        "avg_abs_trace": 1.753040740740741,
        "tensors": [
            [
                [
                    1.463,
                    0.03625,
                    -0.01426
                ],
                [
                    -0.01193,
                    1.50521,
                    -0.0129
                ],
                [
                    -0.04224,
                    0.02008,
                    1.31286
                ]
            ],
            [
                [
                    1.46301,
                    0.03625,
                    -0.01421
                ],
                [
                    -0.01194,
                    1.50516,
                    -0.0129
                ],
                [
                    -0.04228,
                    0.02005,
                    1.31292
                ]
            ],
            [
                [
                    1.4085,
                    -0.12107,
                    -0.01107
                ],
                [
                    -0.12988,
                    1.3564,
                    0.07451
                ],
                [
                    -0.04487,
                    -0.03154,
                    1.25955
                ]
            ],
            [
                [
                    1.40847,
                    -0.12102,
                    -0.01103
                ],
                [
                    -0.12989,
                    1.35643,
                    0.07448
                ],
                [
                    -0.04489,
                    -0.03149,
                    1.25955
                ]
            ],
            [
                [
                    0.75567,
                    0.02594,
                    -0.03553
                ],
                [
                    0.05781,
                    1.17184,
                    -0.04384
                ],
                [
                    0.09753,
                    0.13908,
                    1.1415
                ]
            ],
            [
                [
                    0.75567,
                    0.02594,
                    -0.03553
                ],
                [
                    0.05781,
                    1.17184,
                    -0.04384
                ],
                [
                    0.09754,
                    0.1391,
                    1.14149
                ]
            ],
            [
                [
                    1.25981,
                    -0.09492,
                    0.0115
                ],
                [
                    0.01089,
                    0.79062,
                    -0.13123
                ],
                [
                    -0.02314,
                    -0.16746,
                    1.05061
                ]
            ],
            [
                [
                    1.25981,
                    -0.09492,
                    0.01149
                ],
                [
                    0.01089,
                    0.79062,
                    -0.13123
                ],
                [
                    -0.02313,
                    -0.16746,
                    1.05061
                ]
            ],
            [
                [
                    3.04575,
                    0.19418,
                    -0.12594
                ],
                [
                    0.24335,
                    2.70525,
                    0.00734
                ],
                [
                    0.01828,
                    0.03863,
                    3.43941
                ]
            ],
            [
                [
                    3.04584,
                    0.19427,
                    -0.12608
                ],
                [
                    0.24337,
                    2.70537,
                    0.00713
                ],
                [
                    0.01797,
                    0.03877,
                    3.43933
                ]
            ],
            [
                [
                    -1.89695,
                    -0.71073,
                    0.05896
                ],
                [
                    -0.80607,
                    -2.41772,
                    0.02247
                ],
                [
                    0.0233,
                    -0.01645,
                    -1.48917
                ]
            ],
            [
                [
                    -1.8969,
                    -0.71077,
                    0.05893
                ],
                [
                    -0.8061,
                    -2.41784,
                    0.02225
                ],
                [
                    0.02347,
                    -0.01619,
                    -1.4889
                ]
            ],
            [
                [
                    -1.86607,
                    0.58695,
                    0.50201
                ],
                [
                    0.58041,
                    -2.05061,
                    -0.5378
                ],
                [
                    0.43338,
                    -0.64941,
                    -1.89237
                ]
            ],
            [
                [
                    -1.86606,
                    0.5869,
                    0.50191
                ],
                [
                    0.58032,
                    -2.05069,
                    -0.53792
                ],
                [
                    0.43342,
                    -0.64949,
                    -1.89241
                ]
            ],
            [
                [
                    -1.55074,
                    -0.10641,
                    0.32559
                ],
                [
                    -0.0732,
                    -1.57539,
                    0.48742
                ],
                [
                    0.26954,
                    0.55632,
                    -2.93007
                ]
            ],
            [
                [
                    -1.55086,
                    -0.10643,
                    0.3257
                ],
                [
                    -0.07337,
                    -1.57535,
                    0.48782
                ],
                [
                    0.26976,
                    0.55625,
                    -2.92998
                ]
            ],
            [
                [
                    -2.61893,
                    0.1898,
                    -0.71122
                ],
                [
                    0.12871,
                    -1.48558,
                    0.13408
                ],
                [
                    -0.73169,
                    0.11058,
                    -1.89238
                ]
            ],
            [
                [
                    -2.61901,
                    0.18979,
                    -0.71121
                ],
                [
                    0.12883,
                    -1.48557,
                    0.13416
                ],
                [
                    -0.73196,
                    0.11062,
                    -1.89255
                ]
            ]
        ]
    },
    "band_gap": 4.029,
    "is_direct": false,
    "formula": "Cs2Li2TiO4"
}