{
    "mp_id": "mp-8449",
    "nelements": 4,
    "nsites": 18,
    "elements": [
        "Li",
        "O",
        "Rb",
        "Si"
    ],
    "structure": {
        "@module": "pymatgen.core.structure",
        "@class": "Structure",
        "charge": null,
        "lattice": {
            "matrix": [
                [
                    5.46531525,
                    -0.00170324,
                    -0.00228414
                ],
                [
                    0.43089288,
                    5.62667304,
                    3.319e-05
                ],
                [
                    2.27958652,
                    0.81048543,
                    8.28487561
                ]
            ],
            "a": 5.46531599271301,
            "b": 5.643147895828986,
            "c": 8.630907554109294,
            "alpha": 83.46536570902462,
            "beta": 74.71096197543088,
            "gamma": 85.63867000789287,
            "volume": 254.80713309483397
        },
        "sites": [
            {
                "species": [
                    {
                        "element": "Rb",
                        "occu": 1
                    }
                ],
                "abc": [
                    0.47502723,
                    0.84864598,
                    0.73566546
                ],
                "xyz": [
                    4.6388621405524795,
                    5.370490507475402,
                    6.093839964536374
                ],
                "label": "Rb",
                "properties": {}
            },
            {
                "species": [
                    {
                        "element": "Rb",
                        "occu": 1
                    }
                ],
                "abc": [
                    0.52497277,
                    0.15135402,
                    0.26433454
                ],
                "xyz": [
                    3.536932509447521,
                    1.0649647225245982,
                    2.1887846954636254
                ],
                "label": "Rb",
                "properties": {}
            },
            {
                "species": [
                    {
                        "element": "Rb",
                        "occu": 1
                    }
                ],
                "abc": [
                    0.791369,
                    0.72581092,
                    0.0207307
                ],
                "xyz": [
                    4.685085246001663,
                    4.099354774669738,
                    0.16996776288500182
                ],
                "label": "Rb",
                "properties": {}
            },
            {
                "species": [
                    {
                        "element": "Rb",
                        "occu": 1
                    }
                ],
                "abc": [
                    0.208631,
                    0.27418908,
                    0.9792693
                ],
                "xyz": [
                    3.4907094039983364,
                    2.3361004553302616,
                    8.112656897114999
                ],
                "label": "Rb",
                "properties": {}
            },
            {
                "species": [
                    {
                        "element": "Li",
                        "occu": 1
                    }
                ],
                "abc": [
                    0.9292299,
                    0.18666493,
                    0.43825287
                ],
                "xyz": [
                    6.158002267311986,
                    1.4039173934002953,
                    3.6287542179007417
                ],
                "label": "Li",
                "properties": {}
            },
            {
                "species": [
                    {
                        "element": "Li",
                        "occu": 1
                    }
                ],
                "abc": [
                    0.0707701,
                    0.81333507,
                    0.56174713
                ],
                "xyz": [
                    2.017792382688014,
                    5.031537836599705,
                    4.653870442099259
                ],
                "label": "Li",
                "properties": {}
            },
            {
                "species": [
                    {
                        "element": "Li",
                        "occu": 1
                    }
                ],
                "abc": [
                    0.69763452,
                    0.59400172,
                    0.41909653
                ],
                "xyz": [
                    5.02411049330496,
                    3.680736855946342,
                    3.4705888396372075
                ],
                "label": "Li",
                "properties": {}
            },
            {
                "species": [
                    {
                        "element": "Li",
                        "occu": 1
                    }
                ],
                "abc": [
                    0.30236548,
                    0.40599828,
                    0.58090347
                ],
                "xyz": [
                    3.151684156695041,
                    2.7547183740536583,
                    4.8120358203627935
                ],
                "label": "Li",
                "properties": {}
            },
            {
                "species": [
                    {
                        "element": "Si",
                        "occu": 1
                    }
                ],
                "abc": [
                    0.14792556,
                    0.68785235,
                    0.27726064
                ],
                "xyz": [
                    1.7368901165096307,
                    4.094784029547305,
                    2.2967548610798683
                ],
                "label": "Si",
                "properties": {}
            },
            {
                "species": [
                    {
                        "element": "Si",
                        "occu": 1
                    }
                ],
                "abc": [
                    0.85207444,
                    0.31214765,
                    0.72273936
                ],
                "xyz": [
                    6.438904533490369,
                    2.340671200452695,
                    5.985869798920132
                ],
                "label": "Si",
                "properties": {}
            },
            {
                "species": [
                    {
                        "element": "O",
                        "occu": 1
                    }
                ],
                "abc": [
                    0.9979248,
                    0.5593423,
                    0.721734
                ],
                "xyz": [
                    7.340245339771704,
                    3.73049142544086,
                    5.977215578126005
                ],
                "label": "O",
                "properties": {}
            },
            {
                "species": [
                    {
                        "element": "O",
                        "occu": 1
                    }
                ],
                "abc": [
                    0.0020752,
                    0.4406577,
                    0.278266
                ],
                "xyz": [
                    0.835549310228296,
                    2.7049638045591395,
                    2.305409081873995
                ],
                "label": "O",
                "properties": {}
            },
            {
                "species": [
                    {
                        "element": "O",
                        "occu": 1
                    }
                ],
                "abc": [
                    0.91821818,
                    0.86834364,
                    0.37947984
                ],
                "xyz": [
                    6.257572041726284,
                    5.191884684009294,
                    3.141874752354449
                ],
                "label": "O",
                "properties": {}
            },
            {
                "species": [
                    {
                        "element": "O",
                        "occu": 1
                    }
                ],
                "abc": [
                    0.08178182,
                    0.13165636,
                    0.62052016
                ],
                "xyz": [
                    1.918222608273715,
                    1.2435705459907065,
                    5.140749907645552
                ],
                "label": "O",
                "properties": {}
            },
            {
                "species": [
                    {
                        "element": "O",
                        "occu": 1
                    }
                ],
                "abc": [
                    0.27272607,
                    0.79677858,
                    0.0925598
                ],
                "xyz": [
                    2.0448582388759737,
                    4.5577664062877306,
                    0.7662499300420184
                ],
                "label": "O",
                "properties": {}
            },
            {
                "species": [
                    {
                        "element": "O",
                        "occu": 1
                    }
                ],
                "abc": [
                    0.72727393,
                    0.20322142,
                    0.9074402
                ],
                "xyz": [
                    6.130936411124026,
                    1.8776888237122695,
                    7.516374729957982
                ],
                "label": "O",
                "properties": {}
            },
            {
                "species": [
                    {
                        "element": "O",
                        "occu": 1
                    }
                ],
                "abc": [
                    0.36162676,
                    0.64254009,
                    0.38616703
                ],
                "xyz": [
                    3.1335713521880844,
                    3.9277298157208445,
                    3.1985411279911395
                ],
                "label": "O",
                "properties": {}
            },
            {
                "species": [
                    {
                        "element": "O",
                        "occu": 1
                    }
                ],
                "abc": [
                    0.63837324,
                    0.35745991,
                    0.61383297
                ],
                "xyz": [
                    5.0422232978119155,
                    2.5077254142791556,
                    5.0840835320088615
                ],
                "label": "O",
                "properties": {}
            }
        ]
    },
    "spacegroup": {
        "source": "spglib",
        "symbol": "P-1",
        "number": 2,
        "point_group": "-1",
        "crystal_system": "triclinic",
        "hall": "-P 1"
    },
    "dielectric": {
        "epsilon_ionic": [
            [
                5.76882121,
                0.3068345,
                -1.09250648
            ],
            [
                0.3068345,
                5.33912065,
                0.46280514
            ],
            [
                -1.09250648,
                0.46280514,
                7.20171455
            ]
        ],
        "epsilon_ionic_avg": 6.103218803333333,
        "epsilon_ionic_eig": [
            7.820326335150977,
            4.752991332744633,
            5.7363387421043885
        ],
        "epsilon_electronic": [
            [
                2.80231992,
                -0.01682646,
                0.01362306
            ],
            [
                -0.01682697,
                2.76360855,
                0.03288004
            ],
            [
                0.01362496,
                0.03288002,
                2.79131248
            ]
        ],
        "epsilon_electronic_avg": 2.785746983333333,
        "epsilon_electronic_eig": [
            2.7348869132038596,
            2.8084090020500954,
            2.8139450347460446
        ]
    },
    "phonon": {
        "lowest_freq": -0.10846504497591067,
        "frequency": [
            -0.10846504497591067,
            -0.06064832792878948,
            -0.04378246127101367,
            1.7285797516210395,
            1.8924861046967074,
            1.9211228423388502,
            2.170185697747364,
            2.3895120144075976,
            2.4356636953789583,
            2.7244396393162473,
            3.1245085836295683,
            3.150338703430384,
            3.3887697636949046,
            3.7313877282294095,
            3.9055035894815373,
            4.046587442503564,
            4.515744015526164,
            5.587233107420548,
            5.611025624173208,
            5.934140308714689,
            6.054790781334583,
            6.15302023424038,
            6.706638200269126,
            7.559870076621575,
            9.65055675793228,
            9.753435387428109,
            10.180675088266813,
            10.751545898567592,
            11.055238661910845,
            11.273833975082445,
            11.49945785514809,
            12.159893450204986,
            12.24423775144825,
            12.85435586260267,
            13.089540288439819,
            13.327493638689948,
            13.736494369497775,
            13.763846662010192,
            14.50560315989584,
            14.978905891184612,
            15.530792406819963,
            15.613315186845355,
            16.571190096584832,
            17.283784814039155,
            17.64741370445973,
            18.933236142442993,
            23.44507490240108,
            23.56130088227417,
            23.8768057606823,
            24.383378200970824,
            25.646520651383952,
            25.692320289655562,
            27.468479343431998,
            28.40552212515255
        ]
    },
    "born_effective_charge": {
        "avg_abs_trace": 1.5609305555555555,
        "tensors": [
            [
                [
                    1.27731,
                    -0.00393,
                    -6e-05
                ],
                [
                    -0.01652,
                    1.33239,
                    0.00849
                ],
                [
                    -0.00876,
                    0.02369,
                    1.20522
                ]
            ],
            [
                [
                    1.27733,
                    -0.00392,
                    -7e-05
                ],
                [
                    -0.01651,
                    1.33238,
                    0.00848
                ],
                [
                    -0.00871,
                    0.02369,
                    1.20524
                ]
            ],
            [
                [
                    1.26034,
                    -0.07354,
                    -9e-05
                ],
                [
                    -0.0732,
                    1.17835,
                    0.02295
                ],
                [
                    0.00194,
                    -0.0031,
                    1.17965
                ]
            ],
            [
                [
                    1.26034,
                    -0.07351,
                    -6e-05
                ],
                [
                    -0.07319,
                    1.1784,
                    0.02294
                ],
                [
                    0.00186,
                    -0.0031,
                    1.17969
                ]
            ],
            [
                [
                    0.77502,
                    -0.00635,
                    0.0006
                ],
                [
                    0.01195,
                    1.05969,
                    0.02189
                ],
                [
                    0.0268,
                    0.08363,
                    1.05734
                ]
            ],
            [
                [
                    0.77502,
                    -0.00635,
                    0.0006
                ],
                [
                    0.01195,
                    1.05969,
                    0.02189
                ],
                [
                    0.0268,
                    0.08364,
                    1.05735
                ]
            ],
            [
                [
                    1.15184,
                    -0.02936,
                    -0.02836
                ],
                [
                    -0.00276,
                    0.81553,
                    -0.09879
                ],
                [
                    -0.03049,
                    -0.11667,
                    0.95815
                ]
            ],
            [
                [
                    1.15184,
                    -0.02937,
                    -0.02836
                ],
                [
                    -0.00276,
                    0.81553,
                    -0.09879
                ],
                [
                    -0.03049,
                    -0.11668,
                    0.95815
                ]
            ],
            [
                [
                    2.61075,
                    0.05278,
                    -0.04339
                ],
                [
                    0.09505,
                    2.46311,
                    -0.02444
                ],
                [
                    0.0046,
                    0.0024,
                    2.7478
                ]
            ],
            [
                [
                    2.61077,
                    0.05278,
                    -0.04339
                ],
                [
                    0.09506,
                    2.46312,
                    -0.02445
                ],
                [
                    0.00464,
                    0.00241,
                    2.74779
                ]
            ],
            [
                [
                    -1.64034,
                    -0.30501,
                    0.05981
                ],
                [
                    -0.36561,
                    -2.00617,
                    0.04423
                ],
                [
                    0.02569,
                    -0.00935,
                    -1.60362
                ]
            ],
            [
                [
                    -1.6403,
                    -0.30493,
                    0.05983
                ],
                [
                    -0.3656,
                    -2.0062,
                    0.04421
                ],
                [
                    0.02561,
                    -0.00942,
                    -1.60352
                ]
            ],
            [
                [
                    -1.70829,
                    0.31078,
                    0.21879
                ],
                [
                    0.30153,
                    -1.88008,
                    -0.31618
                ],
                [
                    0.1821,
                    -0.32248,
                    -1.64515
                ]
            ],
            [
                [
                    -1.70827,
                    0.31075,
                    0.21875
                ],
                [
                    0.30152,
                    -1.88007,
                    -0.3162
                ],
                [
                    0.18202,
                    -0.32236,
                    -1.64509
                ]
            ],
            [
                [
                    -1.59386,
                    -0.07484,
                    0.16617
                ],
                [
                    -0.07343,
                    -1.52717,
                    0.22468
                ],
                [
                    0.1474,
                    0.2508,
                    -2.1504
                ]
            ],
            [
                [
                    -1.59395,
                    -0.07486,
                    0.16623
                ],
                [
                    -0.07343,
                    -1.52716,
                    0.22462
                ],
                [
                    0.14731,
                    0.25082,
                    -2.1504
                ]
            ],
            [
                [
                    -2.13276,
                    0.12944,
                    -0.37351
                ],
                [
                    0.12297,
                    -1.43567,
                    0.11724
                ],
                [
                    -0.34911,
                    0.09107,
                    -1.7491
                ]
            ],
            [
                [
                    -2.13279,
                    0.12944,
                    -0.37348
                ],
                [
                    0.12296,
                    -1.43566,
                    0.11724
                ],
                [
                    -0.34922,
                    0.09103,
                    -1.7491
                ]
            ]
        ]
    },
    "band_gap": 4.0458,
    "is_direct": false,
    "formula": "Rb2Li2SiO4"
}