{
    "mp_id": "mp-8271",
    "nelements": 4,
    "nsites": 21,
    "elements": [
        "B",
        "Ba",
        "Ca",
        "O"
    ],
    "structure": {
        "@module": "pymatgen.core.structure",
        "@class": "Structure",
        "charge": null,
        "lattice": {
            "matrix": [
                [
                    3.58119198,
                    2.06760163,
                    5.85711147
                ],
                [
                    -3.581192,
                    2.06760159,
                    5.85711147
                ],
                [
                    2e-08,
                    -4.13520422,
                    5.85711147
                ]
            ],
            "a": 7.169774562006851,
            "b": 7.169774560461444,
            "c": 7.169774662645359,
            "alpha": 59.931809071277584,
            "beta": 59.931809106967705,
            "gamma": 59.93181473565536,
            "volume": 260.21317148462543
        },
        "sites": [
            {
                "species": [
                    {
                        "element": "Ba",
                        "occu": 1
                    }
                ],
                "abc": [
                    0.79220384,
                    0.79220384,
                    0.79220384
                ],
                "xyz": [
                    -3.613754797124472e-16,
                    -7.922038398611164e-07,
                    13.920078593526135
                ],
                "label": "Ba",
                "properties": {}
            },
            {
                "species": [
                    {
                        "element": "Ba",
                        "occu": 1
                    }
                ],
                "abc": [
                    0.20779616,
                    0.20779616,
                    0.20779616
                ],
                "xyz": [
                    -7.218661193605627e-17,
                    -2.0779616005661694e-07,
                    3.6512558164738658
                ],
                "label": "Ba",
                "properties": {}
            },
            {
                "species": [
                    {
                        "element": "Ca",
                        "occu": 1
                    }
                ],
                "abc": [
                    0.0,
                    0.0,
                    0.0
                ],
                "xyz": [
                    0.0,
                    0.0,
                    0.0
                ],
                "label": "Ca",
                "properties": {}
            },
            {
                "species": [
                    {
                        "element": "B",
                        "occu": 1
                    }
                ],
                "abc": [
                    0.36411452,
                    0.62991903,
                    0.75554652
                ],
                "xyz": [
                    -0.9518969769472801,
                    -1.0690737948523892,
                    10.247485495680404
                ],
                "label": "B",
                "properties": {}
            },
            {
                "species": [
                    {
                        "element": "B",
                        "occu": 1
                    }
                ],
                "abc": [
                    0.24445348,
                    0.63588548,
                    0.37008097
                ],
                "xyz": [
                    -1.4017931444314504,
                    0.28982985432739206,
                    7.323848914319598
                ],
                "label": "B",
                "properties": {}
            },
            {
                "species": [
                    {
                        "element": "B",
                        "occu": 1
                    }
                ],
                "abc": [
                    0.63588548,
                    0.37008097,
                    0.24445348
                ],
                "xyz": [
                    0.95189697694728,
                    1.069072794852389,
                    7.323848914319598
                ],
                "label": "B",
                "properties": {}
            },
            {
                "species": [
                    {
                        "element": "B",
                        "occu": 1
                    }
                ],
                "abc": [
                    0.37008097,
                    0.24445348,
                    0.63588548
                ],
                "xyz": [
                    0.44989616748417,
                    -1.3589038995997116,
                    7.323848914319598
                ],
                "label": "B",
                "properties": {}
            },
            {
                "species": [
                    {
                        "element": "B",
                        "occu": 1
                    }
                ],
                "abc": [
                    0.75554652,
                    0.36411452,
                    0.62991903
                ],
                "xyz": [
                    1.40179314443145,
                    -0.28983085432739264,
                    10.247485495680404
                ],
                "label": "B",
                "properties": {}
            },
            {
                "species": [
                    {
                        "element": "B",
                        "occu": 1
                    }
                ],
                "abc": [
                    0.62991903,
                    0.75554652,
                    0.36411452
                ],
                "xyz": [
                    -0.44989616748417033,
                    1.3589028995997112,
                    10.247485495680404
                ],
                "label": "B",
                "properties": {}
            },
            {
                "species": [
                    {
                        "element": "O",
                        "occu": 1
                    }
                ],
                "abc": [
                    0.20336358,
                    0.45997347,
                    0.58223204
                ],
                "xyz": [
                    -0.9189692776115108,
                    -1.0361316414067558,
                    7.295437003716462
                ],
                "label": "O",
                "properties": {}
            },
            {
                "species": [
                    {
                        "element": "O",
                        "occu": 1
                    }
                ],
                "abc": [
                    0.58223204,
                    0.20336358,
                    0.45997347
                ],
                "xyz": [
                    1.3568006955591483,
                    -0.277785457933726,
                    7.295437003716463
                ],
                "label": "O",
                "properties": {}
            },
            {
                "species": [
                    {
                        "element": "O",
                        "occu": 1
                    }
                ],
                "abc": [
                    0.45997347,
                    0.58223204,
                    0.20336358
                ],
                "xyz": [
                    -0.43783141794763797,
                    1.313915853771392,
                    7.295437003716462
                ],
                "label": "O",
                "properties": {}
            },
            {
                "species": [
                    {
                        "element": "O",
                        "occu": 1
                    }
                ],
                "abc": [
                    0.54002653,
                    0.41776796,
                    0.79663642
                ],
                "xyz": [
                    0.43783141794763764,
                    -1.3139168537713926,
                    10.275897406283537
                ],
                "label": "O",
                "properties": {}
            },
            {
                "species": [
                    {
                        "element": "O",
                        "occu": 1
                    }
                ],
                "abc": [
                    0.08387848,
                    0.8402851,
                    0.33634331
                ],
                "xyz": [
                    -2.7088373312417433,
                    0.5199538159024633,
                    7.382929363433029
                ],
                "label": "O",
                "properties": {}
            },
            {
                "species": [
                    {
                        "element": "O",
                        "occu": 1
                    }
                ],
                "abc": [
                    0.41776796,
                    0.79663642,
                    0.54002653
                ],
                "xyz": [
                    -1.3568006955591485,
                    0.27778445793372564,
                    10.275897406283539
                ],
                "label": "O",
                "properties": {}
            },
            {
                "species": [
                    {
                        "element": "O",
                        "occu": 1
                    }
                ],
                "abc": [
                    0.79663642,
                    0.54002653,
                    0.41776796
                ],
                "xyz": [
                    0.9189692776115105,
                    1.0361306414067566,
                    10.275897406283537
                ],
                "label": "O",
                "properties": {}
            },
            {
                "species": [
                    {
                        "element": "O",
                        "occu": 1
                    }
                ],
                "abc": [
                    0.33634331,
                    0.08387848,
                    0.8402851
                ],
                "xyz": [
                    0.9041250395561958,
                    -2.6058992369127436,
                    7.382929363433029
                ],
                "label": "O",
                "properties": {}
            },
            {
                "species": [
                    {
                        "element": "O",
                        "occu": 1
                    }
                ],
                "abc": [
                    0.8402851,
                    0.33634331,
                    0.08387848
                ],
                "xyz": [
                    1.8047122916855474,
                    2.0859441605033906,
                    7.382929363433029
                ],
                "label": "O",
                "properties": {}
            },
            {
                "species": [
                    {
                        "element": "O",
                        "occu": 1
                    }
                ],
                "abc": [
                    0.66365669,
                    0.91612152,
                    0.1597149
                ],
                "xyz": [
                    -0.9041250395561958,
                    2.605898236912744,
                    10.188405046566974
                ],
                "label": "O",
                "properties": {}
            },
            {
                "species": [
                    {
                        "element": "O",
                        "occu": 1
                    }
                ],
                "abc": [
                    0.1597149,
                    0.66365669,
                    0.91612152
                ],
                "xyz": [
                    -1.8047122916855478,
                    -2.0859451605033903,
                    10.188405046566974
                ],
                "label": "O",
                "properties": {}
            },
            {
                "species": [
                    {
                        "element": "O",
                        "occu": 1
                    }
                ],
                "abc": [
                    0.91612152,
                    0.1597149,
                    0.66365669
                ],
                "xyz": [
                    2.7088373312417433,
                    -0.5199548159024636,
                    10.188405046566972
                ],
                "label": "O",
                "properties": {}
            }
        ]
    },
    "spacegroup": {
        "source": "spglib",
        "symbol": "R-3",
        "number": 148,
        "point_group": "-3",
        "crystal_system": "trigonal",
        "hall": "-R 3"
    },
    "dielectric": {
        "epsilon_ionic": [
            [
                4.98814433,
                -5.976e-05,
                1.3e-05
            ],
            [
                -5.976e-05,
                4.98694482,
                -1.83e-06
            ],
            [
                1.3e-05,
                -1.83e-06,
                3.62464308
            ]
        ],
        "epsilon_ionic_avg": 4.533244076666666,
        "epsilon_ionic_eig": [
            4.988147300035783,
            4.9869418500906155,
            3.6246430798735974
        ],
        "epsilon_electronic": [
            [
                3.08326975,
                -7.15e-06,
                0.0
            ],
            [
                7.15e-06,
                3.08326926,
                0.0
            ],
            [
                -0.0,
                0.0,
                2.61618119
            ]
        ],
        "epsilon_electronic_avg": 2.9275734,
        "epsilon_electronic_eig": [
            3.0832695049999996,
            3.0832695049999996,
            2.61618119
        ]
    },
    "phonon": {
        "lowest_freq": -0.04163355046312144,
        "frequency": [
            -0.04163355046312144,
            -0.0416335471170681,
            -0.015984290940379866,
            2.7664584102250567,
            2.8746554953862504,
            2.874655712184511,
            3.3470387205915078,
            3.3470388848860764,
            3.4599173674865558,
            3.7275472345252716,
            3.727547359100552,
            3.8676497017732867,
            3.8676499039840504,
            4.008381516789542,
            4.376367292455371,
            4.376367387392608,
            5.535649545746635,
            5.647370539353943,
            5.647370669184345,
            5.764700609986837,
            6.553863598391657,
            6.922033887367884,
            6.922033905021665,
            7.307531312530195,
            7.307531663702322,
            8.886369719286412,
            9.127056379450174,
            11.6301146466142,
            11.630115066902622,
            11.778738795620063,
            11.778739231354546,
            14.00474800109313,
            14.004748149428615,
            14.152759329474039,
            14.152759493526943,
            17.35948181577347,
            17.447458921081832,
            18.61673309178244,
            18.765677390404438,
            19.589070758641412,
            19.589070758641412,
            20.14861088520915,
            20.14861088520915,
            20.16573675209593,
            21.50508346142567,
            22.42046004390789,
            22.437314410219123,
            28.070901143929373,
            28.070901796919085,
            28.284202630093745,
            28.284203278159023,
            33.23947943453181,
            33.241282122191194,
            36.43408916765014,
            36.434091280672334,
            36.68513295506867,
            36.68513505363103,
            41.51840735164073,
            41.51840855838323,
            41.67925858185368,
            41.679259725300724,
            44.3354546085978,
            45.10052380491378
        ]
    },
    "born_effective_charge": {
        "avg_abs_trace": 1.9197850793650797,
        "tensors": [
            [
                [
                    2.8308,
                    -0.00307,
                    -2e-05
                ],
                [
                    0.00307,
                    2.83055,
                    -1e-05
                ],
                [
                    -0.0,
                    -0.0,
                    2.3608
                ]
            ],
            [
                [
                    2.83075,
                    -0.00303,
                    -0.0
                ],
                [
                    0.00302,
                    2.8305,
                    0.0
                ],
                [
                    -0.0,
                    -0.0,
                    2.36073
                ]
            ],
            [
                [
                    2.39967,
                    -0.1937,
                    5e-05
                ],
                [
                    0.19345,
                    2.39916,
                    -0.0
                ],
                [
                    -0.0,
                    -0.0,
                    2.77188
                ]
            ],
            [
                [
                    2.55585,
                    0.42614,
                    -0.00079
                ],
                [
                    0.37141,
                    2.80635,
                    0.04094
                ],
                [
                    -0.00012,
                    0.00748,
                    0.781
                ]
            ],
            [
                [
                    3.08889,
                    -0.06345,
                    -0.03513
                ],
                [
                    -0.11825,
                    2.27295,
                    -0.02116
                ],
                [
                    -0.00641,
                    -0.00384,
                    0.78099
                ]
            ],
            [
                [
                    2.55591,
                    0.4261,
                    -0.00078
                ],
                [
                    0.37143,
                    2.80632,
                    0.04095
                ],
                [
                    -0.00012,
                    0.00747,
                    0.78099
                ]
            ],
            [
                [
                    2.39846,
                    -0.28032,
                    0.03588
                ],
                [
                    -0.33531,
                    2.9637,
                    -0.01979
                ],
                [
                    0.00653,
                    -0.00363,
                    0.78099
                ]
            ],
            [
                [
                    3.08894,
                    -0.06339,
                    -0.03512
                ],
                [
                    -0.11821,
                    2.27293,
                    -0.02117
                ],
                [
                    -0.00642,
                    -0.00384,
                    0.781
                ]
            ],
            [
                [
                    2.39847,
                    -0.28037,
                    0.03587
                ],
                [
                    -0.33535,
                    2.96365,
                    -0.01977
                ],
                [
                    0.00654,
                    -0.00363,
                    0.781
                ]
            ],
            [
                [
                    -2.17903,
                    0.58964,
                    0.02294
                ],
                [
                    0.62763,
                    -1.85813,
                    0.00237
                ],
                [
                    0.02791,
                    -0.01976,
                    -0.7116
                ]
            ],
            [
                [
                    -1.41117,
                    -0.18432,
                    -0.01351
                ],
                [
                    -0.14653,
                    -2.62637,
                    0.01871
                ],
                [
                    0.00316,
                    0.03405,
                    -0.7116
                ]
            ],
            [
                [
                    -2.46533,
                    -0.46234,
                    -0.00946
                ],
                [
                    -0.42478,
                    -1.57182,
                    -0.0211
                ],
                [
                    -0.03107,
                    -0.01429,
                    -0.7116
                ]
            ],
            [
                [
                    -2.46535,
                    -0.46225,
                    -0.00946
                ],
                [
                    -0.42478,
                    -1.57178,
                    -0.02103
                ],
                [
                    -0.03105,
                    -0.01429,
                    -0.71164
                ]
            ],
            [
                [
                    -2.38009,
                    0.31748,
                    0.05948
                ],
                [
                    0.26819,
                    -1.63136,
                    0.06217
                ],
                [
                    -0.00678,
                    0.12779,
                    -1.31826
                ]
            ],
            [
                [
                    -1.41119,
                    -0.18436,
                    -0.01344
                ],
                [
                    -0.14652,
                    -2.6264,
                    0.01869
                ],
                [
                    0.00315,
                    0.03404,
                    -0.71164
                ]
            ],
            [
                [
                    -2.17894,
                    0.58964,
                    0.0229
                ],
                [
                    0.62767,
                    -1.85811,
                    0.00236
                ],
                [
                    0.0279,
                    -0.01975,
                    -0.71164
                ]
            ],
            [
                [
                    -1.56553,
                    0.2024,
                    -0.08334
                ],
                [
                    0.153,
                    -2.44624,
                    0.02014
                ],
                [
                    -0.10728,
                    -0.06977,
                    -1.31826
                ]
            ],
            [
                [
                    -2.0727,
                    -0.44534,
                    0.02385
                ],
                [
                    -0.49512,
                    -1.93908,
                    -0.08229
                ],
                [
                    0.11406,
                    -0.05802,
                    -1.31826
                ]
            ],
            [
                [
                    -1.56553,
                    0.20248,
                    -0.08329
                ],
                [
                    0.15306,
                    -2.44631,
                    0.02011
                ],
                [
                    -0.10725,
                    -0.06986,
                    -1.31829
                ]
            ],
            [
                [
                    -2.07267,
                    -0.44541,
                    0.0239
                ],
                [
                    -0.49518,
                    -1.93916,
                    -0.08227
                ],
                [
                    0.11412,
                    -0.05795,
                    -1.31829
                ]
            ],
            [
                [
                    -2.38022,
                    0.31747,
                    0.05947
                ],
                [
                    0.26812,
                    -1.63135,
                    0.06215
                ],
                [
                    -0.00688,
                    0.12781,
                    -1.31829
                ]
            ]
        ]
    },
    "band_gap": 5.002800000000001,
    "is_direct": false,
    "formula": "Ba2Ca(BO2)6"
}