{
    "mp_id": "mp-8979",
    "nelements": 3,
    "nsites": 12,
    "elements": [
        "In",
        "O",
        "Ta"
    ],
    "structure": {
        "@module": "pymatgen.core.structure",
        "@class": "Structure",
        "charge": null,
        "lattice": {
            "matrix": [
                [
                    4.84908784,
                    0.0,
                    0.00056992
                ],
                [
                    0.0,
                    5.83919419,
                    0.0
                ],
                [
                    -0.15565369,
                    0.0,
                    5.23436262
                ]
            ],
            "a": 4.849087873491743,
            "b": 5.83919419,
            "c": 5.236676437289579,
            "alpha": 90.0,
            "beta": 91.69656256236259,
            "gamma": 90.0,
            "volume": 148.21026834357534
        },
        "sites": [
            {
                "species": [
                    {
                        "element": "Ta",
                        "occu": 1
                    }
                ],
                "abc": [
                    0.0,
                    0.16544078,
                    0.25
                ],
                "xyz": [
                    -0.0389134225,
                    0.9660408413650682,
                    1.308590655
                ],
                "label": "Ta",
                "properties": {}
            },
            {
                "species": [
                    {
                        "element": "Ta",
                        "occu": 1
                    }
                ],
                "abc": [
                    0.0,
                    0.83455922,
                    0.75
                ],
                "xyz": [
                    -0.11674026750000001,
                    4.873153348634932,
                    3.925771965
                ],
                "label": "Ta",
                "properties": {}
            },
            {
                "species": [
                    {
                        "element": "In",
                        "occu": 1
                    }
                ],
                "abc": [
                    0.5,
                    0.67134952,
                    0.25
                ],
                "xyz": [
                    2.3856304975000002,
                    3.9201402166432886,
                    1.3088756149999998
                ],
                "label": "In",
                "properties": {}
            },
            {
                "species": [
                    {
                        "element": "In",
                        "occu": 1
                    }
                ],
                "abc": [
                    0.5,
                    0.32865048,
                    0.75
                ],
                "xyz": [
                    2.3078036525,
                    1.9190539733567114,
                    3.926056925
                ],
                "label": "In",
                "properties": {}
            },
            {
                "species": [
                    {
                        "element": "O",
                        "occu": 1
                    }
                ],
                "abc": [
                    0.25809364,
                    0.37894546,
                    0.39938353
                ],
                "xyz": [
                    1.189353211135612,
                    2.2127361283588773,
                    2.090665313202957
                ],
                "label": "O",
                "properties": {}
            },
            {
                "species": [
                    {
                        "element": "O",
                        "occu": 1
                    }
                ],
                "abc": [
                    0.74190636,
                    0.37894546,
                    0.10061647
                ],
                "xyz": [
                    3.5819077838643882,
                    2.2127361283588773,
                    0.5270859167970425
                ],
                "label": "O",
                "properties": {}
            },
            {
                "species": [
                    {
                        "element": "O",
                        "occu": 1
                    }
                ],
                "abc": [
                    0.74190636,
                    0.62105454,
                    0.60061647
                ],
                "xyz": [
                    3.504080938864388,
                    3.626458061641123,
                    3.144267226797042
                ],
                "label": "O",
                "properties": {}
            },
            {
                "species": [
                    {
                        "element": "O",
                        "occu": 1
                    }
                ],
                "abc": [
                    0.25809364,
                    0.62105454,
                    0.89938353
                ],
                "xyz": [
                    1.111526366135612,
                    3.626458061641123,
                    4.707846623202957
                ],
                "label": "O",
                "properties": {}
            },
            {
                "species": [
                    {
                        "element": "O",
                        "occu": 1
                    }
                ],
                "abc": [
                    0.21475251,
                    0.89791133,
                    0.43563108
                ],
                "xyz": [
                    0.9735461997697932,
                    5.243078621271173,
                    2.2803734330127288
                ],
                "label": "O",
                "properties": {}
            },
            {
                "species": [
                    {
                        "element": "O",
                        "occu": 1
                    }
                ],
                "abc": [
                    0.78524749,
                    0.89791133,
                    0.06436892
                ],
                "xyz": [
                    3.797714795230207,
                    5.243078621271173,
                    0.33737779698727116
                ],
                "label": "O",
                "properties": {}
            },
            {
                "species": [
                    {
                        "element": "O",
                        "occu": 1
                    }
                ],
                "abc": [
                    0.78524749,
                    0.10208867,
                    0.56436892
                ],
                "xyz": [
                    3.719887950230207,
                    0.5961155687288273,
                    2.954559106987271
                ],
                "label": "O",
                "properties": {}
            },
            {
                "species": [
                    {
                        "element": "O",
                        "occu": 1
                    }
                ],
                "abc": [
                    0.21475251,
                    0.10208867,
                    0.93563108
                ],
                "xyz": [
                    0.8957193547697931,
                    0.5961155687288273,
                    4.897554743012728
                ],
                "label": "O",
                "properties": {}
            }
        ]
    },
    "spacegroup": {
        "source": "spglib",
        "symbol": "P2/c",
        "number": 13,
        "point_group": "2/m",
        "crystal_system": "monoclinic",
        "hall": "-P 2yc"
    },
    "dielectric": {
        "epsilon_ionic": [
            [
                10.23706808,
                2e-08,
                1.94898674
            ],
            [
                2e-08,
                9.86128217,
                1e-08
            ],
            [
                1.94898674,
                1e-08,
                12.17052188
            ]
        ],
        "epsilon_ionic_avg": 10.75629071,
        "epsilon_ionic_eig": [
            13.379366218061268,
            9.028223741938731,
            9.86128217
        ],
        "epsilon_electronic": [
            [
                4.5753552,
                0.0,
                0.13879681
            ],
            [
                0.0,
                4.57119233,
                0.0
            ],
            [
                0.13879676,
                0.0,
                4.82489094
            ]
        ],
        "epsilon_electronic_avg": 4.657146156666666,
        "epsilon_electronic_eig": [
            4.51349089455677,
            4.88675524544323,
            4.57119233
        ]
    },
    "phonon": {
        "lowest_freq": -0.018232380732714597,
        "frequency": [
            -0.018232380732714597,
            -0.014826783047930316,
            -0.009933111790714204,
            3.4203377936162433,
            3.489421692093187,
            4.255331675537794,
            4.633627719476814,
            5.143593655596414,
            5.418129917813299,
            5.565849799771036,
            5.761051323236493,
            6.61210351923293,
            6.797198233074636,
            7.963264711579384,
            8.483136003692882,
            8.49094020018891,
            8.555220027842445,
            8.910770470805005,
            9.500974062231437,
            10.957168193404604,
            11.060896287095934,
            12.584663195253198,
            13.217923854784072,
            14.048899421426883,
            14.227469805477723,
            14.553831955468656,
            15.362437036920278,
            15.567352878287451,
            15.670927040624113,
            17.833374857507298,
            17.973781631362023,
            19.040684380862057,
            19.42775071238132,
            20.14314187402439,
            22.12267660125698,
            23.73798109104577
        ]
    },
    "born_effective_charge": {
        "avg_abs_trace": 3.320955833333333,
        "tensors": [
            [
                [
                    5.21275,
                    9e-05,
                    0.47893
                ],
                [
                    0.0,
                    5.94076,
                    0.0
                ],
                [
                    0.40781,
                    -0.00014,
                    6.83507
                ]
            ],
            [
                [
                    5.21275,
                    -9e-05,
                    0.47893
                ],
                [
                    0.0,
                    5.94089,
                    0.0
                ],
                [
                    0.40781,
                    0.00014,
                    6.83507
                ]
            ],
            [
                [
                    4.36219,
                    2e-05,
                    -0.02307
                ],
                [
                    0.0,
                    3.84486,
                    0.0
                ],
                [
                    0.04666,
                    -2e-05,
                    3.69291
                ]
            ],
            [
                [
                    4.36219,
                    -2e-05,
                    -0.02307
                ],
                [
                    0.0,
                    3.84486,
                    0.0
                ],
                [
                    0.04666,
                    2e-05,
                    3.69291
                ]
            ],
            [
                [
                    -2.5927,
                    -1.18412,
                    -0.82729
                ],
                [
                    -1.28566,
                    -2.63966,
                    -0.57671
                ],
                [
                    -0.89697,
                    -0.49539,
                    -2.1301
                ]
            ],
            [
                [
                    -2.59258,
                    1.18404,
                    -0.82737
                ],
                [
                    1.28566,
                    -2.63966,
                    0.57671
                ],
                [
                    -0.89711,
                    0.49578,
                    -2.13035
                ]
            ],
            [
                [
                    -2.59258,
                    -1.18404,
                    -0.82737
                ],
                [
                    -1.28577,
                    -2.63966,
                    -0.57671
                ],
                [
                    -0.89711,
                    -0.49578,
                    -2.13035
                ]
            ],
            [
                [
                    -2.5927,
                    1.18412,
                    -0.82729
                ],
                [
                    1.28577,
                    -2.63966,
                    0.57671
                ],
                [
                    -0.89697,
                    0.49539,
                    -2.1301
                ]
            ],
            [
                [
                    -2.19477,
                    0.57209,
                    0.59945
                ],
                [
                    0.58143,
                    -2.25298,
                    0.56271
                ],
                [
                    0.6698,
                    0.74778,
                    -3.13364
                ]
            ],
            [
                [
                    -2.19489,
                    -0.572,
                    0.59936
                ],
                [
                    -0.58143,
                    -2.25298,
                    -0.56271
                ],
                [
                    0.66982,
                    -0.74782,
                    -3.13389
                ]
            ],
            [
                [
                    -2.19489,
                    0.572,
                    0.59936
                ],
                [
                    0.58098,
                    -2.25338,
                    0.56279
                ],
                [
                    0.66982,
                    0.74782,
                    -3.13389
                ]
            ],
            [
                [
                    -2.19477,
                    -0.57209,
                    0.59945
                ],
                [
                    -0.58098,
                    -2.25338,
                    -0.56279
                ],
                [
                    0.6698,
                    -0.74778,
                    -3.13364
                ]
            ]
        ]
    },
    "band_gap": 3.6946999999999997,
    "is_direct": false,
    "formula": "TaInO4"
}