{
    "mp_id": "mp-8054",
    "nelements": 4,
    "nsites": 20,
    "elements": [
        "Ge",
        "Na",
        "O",
        "Sc"
    ],
    "structure": {
        "@module": "pymatgen.core.structure",
        "@class": "Structure",
        "charge": null,
        "lattice": {
            "matrix": [
                [
                    5.15202911,
                    -4.54607328,
                    -0.00723154
                ],
                [
                    5.15202911,
                    4.54607328,
                    -0.00723154
                ],
                [
                    -1.72601971,
                    0.0,
                    5.35513579
                ]
            ],
            "a": 6.870970711085016,
            "b": 6.870970711085016,
            "c": 5.626421897498215,
            "alpha": 103.35748438609414,
            "beta": 103.35748438609414,
            "gamma": 82.84934168365783,
            "volume": 250.7371597117803
        },
        "sites": [
            {
                "species": [
                    {
                        "element": "Na",
                        "occu": 1
                    }
                ],
                "abc": [
                    0.29950598,
                    0.70049402,
                    0.25
                ],
                "xyz": [
                    4.720524182500001,
                    1.8229210142435714,
                    1.3315524075
                ],
                "label": "Na",
                "properties": {}
            },
            {
                "species": [
                    {
                        "element": "Na",
                        "occu": 1
                    }
                ],
                "abc": [
                    0.70049402,
                    0.29950598,
                    0.75
                ],
                "xyz": [
                    3.8575143275000006,
                    -1.8229210142435714,
                    4.0091203025
                ],
                "label": "Na",
                "properties": {}
            },
            {
                "species": [
                    {
                        "element": "Sc",
                        "occu": 1
                    }
                ],
                "abc": [
                    0.90336676,
                    0.09663324,
                    0.25
                ],
                "xyz": [
                    4.7205241825,
                    -3.6674696993523455,
                    1.3315524075
                ],
                "label": "Sc",
                "properties": {}
            },
            {
                "species": [
                    {
                        "element": "Sc",
                        "occu": 1
                    }
                ],
                "abc": [
                    0.09663324,
                    0.90336676,
                    0.75
                ],
                "xyz": [
                    3.8575143274999997,
                    3.6674696993523455,
                    4.0091203025
                ],
                "label": "Sc",
                "properties": {}
            },
            {
                "species": [
                    {
                        "element": "Ge",
                        "occu": 1
                    }
                ],
                "abc": [
                    0.80526475,
                    0.61990799,
                    0.26144855
                ],
                "xyz": [
                    6.891266092807541,
                    -0.842645413903373,
                    1.3897862936723848
                ],
                "label": "Ge",
                "properties": {}
            },
            {
                "species": [
                    {
                        "element": "Ge",
                        "occu": 1
                    }
                ],
                "abc": [
                    0.38009201,
                    0.19473525,
                    0.23855145
                ],
                "xyz": [
                    2.549782272192459,
                    -0.8426454139033727,
                    1.2733185213276152
                ],
                "label": "Ge",
                "properties": {}
            },
            {
                "species": [
                    {
                        "element": "Ge",
                        "occu": 1
                    }
                ],
                "abc": [
                    0.19473525,
                    0.38009201,
                    0.73855145
                ],
                "xyz": [
                    1.6867724171924587,
                    0.8426454139033727,
                    3.9508864163276156
                ],
                "label": "Ge",
                "properties": {}
            },
            {
                "species": [
                    {
                        "element": "Ge",
                        "occu": 1
                    }
                ],
                "abc": [
                    0.61990799,
                    0.80526475,
                    0.76144855
                ],
                "xyz": [
                    6.028256237807541,
                    0.842645413903373,
                    4.067354188672385
                ],
                "label": "Ge",
                "properties": {}
            },
            {
                "species": [
                    {
                        "element": "O",
                        "occu": 1
                    }
                ],
                "abc": [
                    0.63551396,
                    0.63847134,
                    0.96896452
                ],
                "xyz": [
                    4.891157491501394,
                    0.013444466196806282,
                    5.1797237046358084
                ],
                "label": "O",
                "properties": {}
            },
            {
                "species": [
                    {
                        "element": "O",
                        "occu": 1
                    }
                ],
                "abc": [
                    0.36152866,
                    0.36448604,
                    0.53103548
                ],
                "xyz": [
                    2.8238711634986062,
                    0.013444466196806504,
                    2.838516900364191
                ],
                "label": "O",
                "properties": {}
            },
            {
                "species": [
                    {
                        "element": "O",
                        "occu": 1
                    }
                ],
                "abc": [
                    0.36448604,
                    0.36152866,
                    0.03103548
                ],
                "xyz": [
                    3.6868810184986063,
                    -0.013444466196806504,
                    0.16094900536419124
                ],
                "label": "O",
                "properties": {}
            },
            {
                "species": [
                    {
                        "element": "O",
                        "occu": 1
                    }
                ],
                "abc": [
                    0.63847134,
                    0.63551396,
                    0.46896452
                ],
                "xyz": [
                    5.754167346501394,
                    -0.013444466196806282,
                    2.502155809635809
                ],
                "label": "O",
                "properties": {}
            },
            {
                "species": [
                    {
                        "element": "O",
                        "occu": 1
                    }
                ],
                "abc": [
                    0.37359634,
                    0.91283285,
                    0.6969299
                ],
                "xyz": [
                    5.424805890945393,
                    2.451408689711453,
                    3.7228513864664685
                ],
                "label": "O",
                "properties": {}
            },
            {
                "species": [
                    {
                        "element": "O",
                        "occu": 1
                    }
                ],
                "abc": [
                    0.08716715,
                    0.62640366,
                    0.8030701
                ],
                "xyz": [
                    2.290222764054608,
                    2.4514086897114526,
                    4.295389218533533
                ],
                "label": "O",
                "properties": {}
            },
            {
                "species": [
                    {
                        "element": "O",
                        "occu": 1
                    }
                ],
                "abc": [
                    0.62640366,
                    0.08716715,
                    0.3030701
                ],
                "xyz": [
                    3.153232619054608,
                    -2.4514086897114526,
                    1.6178213235335317
                ],
                "label": "O",
                "properties": {}
            },
            {
                "species": [
                    {
                        "element": "O",
                        "occu": 1
                    }
                ],
                "abc": [
                    0.91283285,
                    0.37359634,
                    0.1969299
                ],
                "xyz": [
                    6.287815745945393,
                    -2.451408689711453,
                    1.0452834914664684
                ],
                "label": "O",
                "properties": {}
            },
            {
                "species": [
                    {
                        "element": "O",
                        "occu": 1
                    }
                ],
                "abc": [
                    0.97681577,
                    0.81060247,
                    0.363155
                ],
                "xyz": [
                    8.582018116439917,
                    -0.7556178419106243,
                    1.9318185513181605
                ],
                "label": "O",
                "properties": {}
            },
            {
                "species": [
                    {
                        "element": "O",
                        "occu": 1
                    }
                ],
                "abc": [
                    0.18939753,
                    0.02318423,
                    0.136845
                ],
                "xyz": [
                    0.8590302485600837,
                    -0.7556178419106241,
                    0.7312862636818396
                ],
                "label": "O",
                "properties": {}
            },
            {
                "species": [
                    {
                        "element": "O",
                        "occu": 1
                    }
                ],
                "abc": [
                    0.02318423,
                    0.18939753,
                    0.636845
                ],
                "xyz": [
                    -0.003979606439916461,
                    0.7556178419106241,
                    3.40885415868184
                ],
                "label": "O",
                "properties": {}
            },
            {
                "species": [
                    {
                        "element": "O",
                        "occu": 1
                    }
                ],
                "abc": [
                    0.81060247,
                    0.97681577,
                    0.863155
                ],
                "xyz": [
                    7.7190082614399165,
                    0.7556178419106243,
                    4.609386446318161
                ],
                "label": "O",
                "properties": {}
            }
        ]
    },
    "spacegroup": {
        "source": "spglib",
        "symbol": "C2/c",
        "number": 15,
        "point_group": "2/m",
        "crystal_system": "monoclinic",
        "hall": "-C 2yc"
    },
    "dielectric": {
        "epsilon_ionic": [
            [
                6.86390436,
                2e-08,
                -0.13278936
            ],
            [
                2e-08,
                5.85392469,
                -0.0
            ],
            [
                -0.13278936,
                -0.0,
                7.8022231
            ]
        ],
        "epsilon_ionic_avg": 6.840017383333335,
        "epsilon_ionic_eig": [
            6.845474221716643,
            7.8206532382833585,
            5.853924690000001
        ],
        "epsilon_electronic": [
            [
                3.64239932,
                0.0,
                0.03023762
            ],
            [
                0.0,
                3.55560026,
                0.0
            ],
            [
                0.03023835,
                0.0,
                3.49412128
            ]
        ],
        "epsilon_electronic_avg": 3.5640402866666663,
        "epsilon_electronic_eig": [
            3.6483285835040653,
            3.4881920164959346,
            3.55560026
        ]
    },
    "phonon": {
        "lowest_freq": -0.09764146310617723,
        "frequency": [
            -0.09764146310617723,
            -0.09554954808911464,
            -0.041313846614921046,
            2.1875491235707734,
            2.4270017004479745,
            2.473063207996744,
            2.754884735973957,
            3.2946061166940255,
            4.0287773552243475,
            4.110654478062452,
            4.411142675842615,
            4.437490103390368,
            4.584910130260262,
            5.078296204060114,
            5.370345909482063,
            5.3891599732745945,
            5.655038850915951,
            5.922109627793984,
            5.996694478030278,
            6.0926618334775045,
            6.261925019322601,
            6.368983193852067,
            6.547834095717736,
            7.240469587132084,
            7.268364385377116,
            7.439813769862548,
            7.887667237144287,
            7.910634130424125,
            8.11792059705356,
            8.69247963171866,
            8.976888143769413,
            9.329437106655542,
            10.042759077755116,
            10.261702636149773,
            10.658228309670164,
            11.642171127133874,
            11.751535851659693,
            11.873548794716264,
            11.90827240330716,
            12.526981495534214,
            12.909363178100849,
            13.270326335387418,
            13.329835173387783,
            14.19021117284804,
            14.800411987869085,
            14.974508087751305,
            15.069377836912173,
            15.777982052562999,
            21.23848881703332,
            21.7219159709983,
            21.9969858924766,
            22.753652272422542,
            23.145817790039366,
            23.306956509910382,
            23.348854518498676,
            24.478962984143788,
            24.876426363685436,
            25.97201588573196,
            26.741018247678902,
            26.88164116897532
        ]
    },
    "born_effective_charge": {
        "avg_abs_trace": 2.4347568333333336,
        "tensors": [
            [
                [
                    1.12459,
                    -1e-05,
                    -0.0042
                ],
                [
                    -0.0,
                    1.09899,
                    0.0
                ],
                [
                    0.02346,
                    3e-05,
                    1.12473
                ]
            ],
            [
                [
                    1.12459,
                    1e-05,
                    -0.0042
                ],
                [
                    -0.0,
                    1.09898,
                    0.0
                ],
                [
                    0.02346,
                    -3e-05,
                    1.12473
                ]
            ],
            [
                [
                    4.44163,
                    -4e-05,
                    0.0088
                ],
                [
                    -0.0,
                    3.9128,
                    0.0
                ],
                [
                    -0.01086,
                    -1e-05,
                    3.64046
                ]
            ],
            [
                [
                    4.44163,
                    4e-05,
                    0.0088
                ],
                [
                    -0.0,
                    3.91286,
                    0.0
                ],
                [
                    -0.01086,
                    1e-05,
                    3.64046
                ]
            ],
            [
                [
                    3.33519,
                    0.72433,
                    -0.01685
                ],
                [
                    0.2041,
                    3.55963,
                    0.01778
                ],
                [
                    0.00908,
                    0.05148,
                    3.69427
                ]
            ],
            [
                [
                    3.33511,
                    -0.72429,
                    -0.01658
                ],
                [
                    -0.2041,
                    3.55963,
                    -0.01778
                ],
                [
                    0.00885,
                    -0.05171,
                    3.69427
                ]
            ],
            [
                [
                    3.33511,
                    0.72429,
                    -0.01658
                ],
                [
                    0.20411,
                    3.55966,
                    0.01775
                ],
                [
                    0.00885,
                    0.05171,
                    3.69427
                ]
            ],
            [
                [
                    3.33519,
                    -0.72433,
                    -0.01685
                ],
                [
                    -0.20411,
                    3.55966,
                    -0.01775
                ],
                [
                    0.00908,
                    -0.05148,
                    3.69427
                ]
            ],
            [
                [
                    -1.46864,
                    -0.31385,
                    0.36624
                ],
                [
                    -0.25125,
                    -1.65559,
                    0.7446
                ],
                [
                    0.3095,
                    0.80882,
                    -2.47578
                ]
            ],
            [
                [
                    -1.46868,
                    0.31367,
                    0.36638
                ],
                [
                    0.25125,
                    -1.65559,
                    -0.7446
                ],
                [
                    0.30954,
                    -0.8088,
                    -2.47561
                ]
            ],
            [
                [
                    -1.46868,
                    -0.31367,
                    0.36638
                ],
                [
                    -0.25132,
                    -1.65556,
                    0.74462
                ],
                [
                    0.30954,
                    0.8088,
                    -2.47561
                ]
            ],
            [
                [
                    -1.46864,
                    0.31385,
                    0.36624
                ],
                [
                    0.25132,
                    -1.65556,
                    -0.74462
                ],
                [
                    0.3095,
                    -0.80882,
                    -2.47578
                ]
            ],
            [
                [
                    -2.22193,
                    1.13945,
                    0.04246
                ],
                [
                    1.13199,
                    -2.66997,
                    -0.01312
                ],
                [
                    -0.03003,
                    0.08131,
                    -1.35236
                ]
            ],
            [
                [
                    -2.2219,
                    -1.13948,
                    0.04249
                ],
                [
                    -1.13199,
                    -2.66997,
                    0.01312
                ],
                [
                    -0.03011,
                    -0.08117,
                    -1.35239
                ]
            ],
            [
                [
                    -2.2219,
                    1.13948,
                    0.04249
                ],
                [
                    1.13209,
                    -2.66996,
                    -0.01309
                ],
                [
                    -0.03011,
                    0.08117,
                    -1.35239
                ]
            ],
            [
                [
                    -2.22193,
                    -1.13945,
                    0.04246
                ],
                [
                    -1.13209,
                    -2.66996,
                    0.01309
                ],
                [
                    -0.03003,
                    -0.08131,
                    -1.35236
                ]
            ],
            [
                [
                    -2.4277,
                    -0.5752,
                    -0.39438
                ],
                [
                    -0.43272,
                    -1.73995,
                    0.40652
                ],
                [
                    -0.29473,
                    0.21926,
                    -2.24875
                ]
            ],
            [
                [
                    -2.42767,
                    0.5753,
                    -0.39436
                ],
                [
                    0.43272,
                    -1.73995,
                    -0.40652
                ],
                [
                    -0.29469,
                    -0.21946,
                    -2.24884
                ]
            ],
            [
                [
                    -2.42767,
                    -0.5753,
                    -0.39436
                ],
                [
                    -0.43262,
                    -1.74007,
                    0.40672
                ],
                [
                    -0.29469,
                    0.21946,
                    -2.24884
                ]
            ],
            [
                [
                    -2.4277,
                    0.5752,
                    -0.39438
                ],
                [
                    0.43262,
                    -1.74007,
                    -0.40672
                ],
                [
                    -0.29473,
                    -0.21926,
                    -2.24875
                ]
            ]
        ]
    },
    "band_gap": 3.4281,
    "is_direct": false,
    "formula": "NaSc(GeO3)2"
}