{
    "mp_id": "mp-8000",
    "nelements": 4,
    "nsites": 10,
    "elements": [
        "B",
        "O",
        "Sn",
        "Sr"
    ],
    "structure": {
        "@module": "pymatgen.core.structure",
        "@class": "Structure",
        "charge": null,
        "lattice": {
            "matrix": [
                [
                    2.47819112,
                    1.43078494,
                    5.607971
                ],
                [
                    -2.47819112,
                    1.43078494,
                    5.607971
                ],
                [
                    0.0,
                    -2.86156888,
                    5.607971
                ]
            ],
            "a": 6.295864953175112,
            "b": 6.295864953175112,
            "c": 6.2958649280162815,
            "alpha": 46.36012981316429,
            "beta": 46.36012981316429,
            "gamma": 46.36012209084341,
            "volume": 119.30703835905624
        },
        "sites": [
            {
                "species": [
                    {
                        "element": "Sr",
                        "occu": 1
                    }
                ],
                "abc": [
                    0.0,
                    0.0,
                    0.0
                ],
                "xyz": [
                    0.0,
                    0.0,
                    0.0
                ],
                "label": "Sr",
                "properties": {}
            },
            {
                "species": [
                    {
                        "element": "Sn",
                        "occu": 1
                    }
                ],
                "abc": [
                    0.5,
                    0.5,
                    0.5
                ],
                "xyz": [
                    0.0,
                    4.999999998478444e-07,
                    8.4119565
                ],
                "label": "Sn",
                "properties": {}
            },
            {
                "species": [
                    {
                        "element": "B",
                        "occu": 1
                    }
                ],
                "abc": [
                    0.23509471,
                    0.23509471,
                    0.23509471
                ],
                "xyz": [
                    0.0,
                    2.3509470992166825e-07,
                    3.95521294780023
                ],
                "label": "B",
                "properties": {}
            },
            {
                "species": [
                    {
                        "element": "B",
                        "occu": 1
                    }
                ],
                "abc": [
                    0.76490529,
                    0.76490529,
                    0.76490529
                ],
                "xyz": [
                    0.0,
                    7.649052897740205e-07,
                    12.86870005219977
                ],
                "label": "B",
                "properties": {}
            },
            {
                "species": [
                    {
                        "element": "O",
                        "occu": 1
                    }
                ],
                "abc": [
                    0.49426578,
                    0.28036294,
                    0.94162604
                ],
                "xyz": [
                    0.5300921186307808,
                    -1.5862006659941588,
                    9.62470692269196
                ],
                "label": "O",
                "properties": {}
            },
            {
                "species": [
                    {
                        "element": "O",
                        "occu": 1
                    }
                ],
                "abc": [
                    0.28036294,
                    0.94162604,
                    0.49426578
                ],
                "xyz": [
                    -1.6387363424036723,
                    0.33402785493303466,
                    9.62470692269196
                ],
                "label": "O",
                "properties": {}
            },
            {
                "species": [
                    {
                        "element": "O",
                        "occu": 1
                    }
                ],
                "abc": [
                    0.05837396,
                    0.50573422,
                    0.71963706
                ],
                "xyz": [
                    -1.1086442237728913,
                    -1.252173527315884,
                    7.199206077308041
                ],
                "label": "O",
                "properties": {}
            },
            {
                "species": [
                    {
                        "element": "O",
                        "occu": 1
                    }
                ],
                "abc": [
                    0.50573422,
                    0.71963706,
                    0.05837396
                ],
                "xyz": [
                    -0.5300921186307808,
                    1.5862016659941582,
                    7.19920607730804
                ],
                "label": "O",
                "properties": {}
            },
            {
                "species": [
                    {
                        "element": "O",
                        "occu": 1
                    }
                ],
                "abc": [
                    0.71963706,
                    0.05837396,
                    0.50573422
                ],
                "xyz": [
                    1.638736342403672,
                    -0.33402685493303474,
                    7.199206077308041
                ],
                "label": "O",
                "properties": {}
            },
            {
                "species": [
                    {
                        "element": "O",
                        "occu": 1
                    }
                ],
                "abc": [
                    0.94162604,
                    0.49426578,
                    0.28036294
                ],
                "xyz": [
                    1.1086442237728915,
                    1.2521745273158835,
                    9.62470692269196
                ],
                "label": "O",
                "properties": {}
            }
        ]
    },
    "spacegroup": {
        "source": "spglib",
        "symbol": "R-3",
        "number": 148,
        "point_group": "-3",
        "crystal_system": "trigonal",
        "hall": "-R 3"
    },
    "dielectric": {
        "epsilon_ionic": [
            [
                6.52154318,
                -9.6e-07,
                -7.1e-06
            ],
            [
                -9.6e-07,
                6.52155905,
                -1.386e-05
            ],
            [
                -7.1e-06,
                -1.386e-05,
                5.44863849
            ]
        ],
        "epsilon_ionic_avg": 6.163913573333335,
        "epsilon_ionic_eig": [
            5.448638489773975,
            6.521543122197601,
            6.521559108028426
        ],
        "epsilon_electronic": [
            [
                3.35981136,
                2.52e-06,
                0.0
            ],
            [
                -2.52e-06,
                3.35981179,
                -1.7e-07
            ],
            [
                0.0,
                -1.7e-07,
                2.87494075
            ]
        ],
        "epsilon_electronic_avg": 3.198187966666667,
        "epsilon_electronic_eig": [
            3.3598115750000304,
            3.3598115750000304,
            2.8749407499999404
        ]
    },
    "phonon": {
        "lowest_freq": -0.025544761124517864,
        "frequency": [
            -0.025544761124517864,
            -0.025544759450200998,
            -0.017601305129176778,
            3.541771026063104,
            3.5417712123767684,
            4.256043511588348,
            5.525809672726318,
            5.525809915984912,
            6.280361160885592,
            6.2803613360030015,
            6.982591211195102,
            7.285438067064967,
            10.844028747941724,
            10.844029243772463,
            11.111658782033174,
            11.11165912295455,
            11.259418509454708,
            12.636068877112518,
            18.46756234937247,
            18.467562614052913,
            18.753200168957946,
            18.75320062509367,
            20.965774916993972,
            21.386339308542922,
            28.160856313903434,
            28.234374406914238,
            36.340500802793386,
            36.34050292125729,
            36.578567904618104,
            36.578569975886694
        ]
    },
    "born_effective_charge": {
        "avg_abs_trace": 2.1862063333333337,
        "tensors": [
            [
                [
                    2.44634,
                    0.03092,
                    -1e-05
                ],
                [
                    -0.03092,
                    2.44634,
                    -1e-05
                ],
                [
                    0.0,
                    0.0,
                    2.94692
                ]
            ],
            [
                [
                    4.39152,
                    -0.29219,
                    0.0
                ],
                [
                    0.29219,
                    4.39153,
                    0.0
                ],
                [
                    0.0,
                    -0.0,
                    3.5609
                ]
            ],
            [
                [
                    2.87462,
                    0.33054,
                    0.0
                ],
                [
                    -0.33055,
                    2.87462,
                    0.0
                ],
                [
                    0.0,
                    -0.0,
                    0.55555
                ]
            ],
            [
                [
                    2.87459,
                    0.33056,
                    0.0
                ],
                [
                    -0.33057,
                    2.87459,
                    0.0
                ],
                [
                    0.0,
                    -0.0,
                    0.55556
                ]
            ],
            [
                [
                    -1.62541,
                    0.29167,
                    0.21561
                ],
                [
                    0.42497,
                    -2.57028,
                    0.2139
                ],
                [
                    0.20239,
                    0.19341,
                    -1.26982
                ]
            ],
            [
                [
                    -2.02376,
                    -0.65494,
                    -0.29305
                ],
                [
                    -0.52166,
                    -2.17195,
                    0.07977
                ],
                [
                    -0.2687,
                    0.07857,
                    -1.26982
                ]
            ],
            [
                [
                    -2.64434,
                    0.16333,
                    0.07745
                ],
                [
                    0.2966,
                    -1.55135,
                    -0.29367
                ],
                [
                    0.0663,
                    -0.27198,
                    -1.26983
                ]
            ],
            [
                [
                    -1.62544,
                    0.29167,
                    0.2156
                ],
                [
                    0.42494,
                    -2.57025,
                    0.21391
                ],
                [
                    0.20239,
                    0.19341,
                    -1.26983
                ]
            ],
            [
                [
                    -2.02375,
                    -0.6549,
                    -0.29305
                ],
                [
                    -0.52162,
                    -2.17194,
                    0.07976
                ],
                [
                    -0.26869,
                    0.07857,
                    -1.26983
                ]
            ],
            [
                [
                    -2.64438,
                    0.16334,
                    0.07744
                ],
                [
                    0.29662,
                    -1.55131,
                    -0.29366
                ],
                [
                    0.0663,
                    -0.27198,
                    -1.26982
                ]
            ]
        ]
    },
    "band_gap": 3.8148999999999997,
    "is_direct": false,
    "formula": "SrSn(BO3)2"
}