{
    "mp_id": "mp-8961",
    "nelements": 4,
    "nsites": 22,
    "elements": [
        "Ba",
        "Na",
        "O",
        "Ta"
    ],
    "structure": {
        "@module": "pymatgen.core.structure",
        "@class": "Structure",
        "charge": null,
        "lattice": {
            "matrix": [
                [
                    5.13773007,
                    2.96626939,
                    3.97492514
                ],
                [
                    -5.13773007,
                    2.96626939,
                    3.97492514
                ],
                [
                    0.0,
                    -5.93253977,
                    3.97492514
                ]
            ],
            "a": 7.141082147324536,
            "b": 7.141082147324536,
            "c": 7.141082410337782,
            "alpha": 92.01998851379498,
            "beta": 92.01998851379498,
            "gamma": 92.01999426955581,
            "volume": 363.4646061473603
        },
        "sites": [
            {
                "species": [
                    {
                        "element": "Ba",
                        "occu": 1
                    }
                ],
                "abc": [
                    0.25,
                    0.89859135,
                    0.60140865
                ],
                "xyz": [
                    -3.3322872820368943,
                    -0.16084937102323416,
                    6.956118995000001
                ],
                "label": "Ba",
                "properties": {}
            },
            {
                "species": [
                    {
                        "element": "Ba",
                        "occu": 1
                    }
                ],
                "abc": [
                    0.89859135,
                    0.60140865,
                    0.25
                ],
                "xyz": [
                    1.526844494073789,
                    2.9662691425000003,
                    6.956118995
                ],
                "label": "Ba",
                "properties": {}
            },
            {
                "species": [
                    {
                        "element": "Ba",
                        "occu": 1
                    }
                ],
                "abc": [
                    0.39859135,
                    0.75,
                    0.10140865
                ],
                "xyz": [
                    -1.8054427879631052,
                    2.805420513976766,
                    4.968656425000001
                ],
                "label": "Ba",
                "properties": {}
            },
            {
                "species": [
                    {
                        "element": "Ba",
                        "occu": 1
                    }
                ],
                "abc": [
                    0.75,
                    0.10140865,
                    0.39859135
                ],
                "xyz": [
                    3.3322872820368943,
                    0.1608483810232335,
                    4.968656425
                ],
                "label": "Ba",
                "properties": {}
            },
            {
                "species": [
                    {
                        "element": "Ba",
                        "occu": 1
                    }
                ],
                "abc": [
                    0.10140865,
                    0.39859135,
                    0.75
                ],
                "xyz": [
                    -1.526844494073789,
                    -2.9662701325000005,
                    4.968656425
                ],
                "label": "Ba",
                "properties": {}
            },
            {
                "species": [
                    {
                        "element": "Ba",
                        "occu": 1
                    }
                ],
                "abc": [
                    0.60140865,
                    0.25,
                    0.89859135
                ],
                "xyz": [
                    1.8054427879631052,
                    -2.805421503976766,
                    6.956118995
                ],
                "label": "Ba",
                "properties": {}
            },
            {
                "species": [
                    {
                        "element": "Na",
                        "occu": 1
                    }
                ],
                "abc": [
                    0.25,
                    0.25,
                    0.25
                ],
                "xyz": [
                    0.0,
                    -2.4750000005013817e-07,
                    2.981193855
                ],
                "label": "Na",
                "properties": {}
            },
            {
                "species": [
                    {
                        "element": "Na",
                        "occu": 1
                    }
                ],
                "abc": [
                    0.75,
                    0.75,
                    0.75
                ],
                "xyz": [
                    0.0,
                    -7.425000010385929e-07,
                    8.943581564999999
                ],
                "label": "Na",
                "properties": {}
            },
            {
                "species": [
                    {
                        "element": "Ta",
                        "occu": 1
                    }
                ],
                "abc": [
                    0.0,
                    0.0,
                    0.0
                ],
                "xyz": [
                    0.0,
                    0.0,
                    0.0
                ],
                "label": "Ta",
                "properties": {}
            },
            {
                "species": [
                    {
                        "element": "Ta",
                        "occu": 1
                    }
                ],
                "abc": [
                    0.5,
                    0.5,
                    0.5
                ],
                "xyz": [
                    0.0,
                    -4.950000001002763e-07,
                    5.96238771
                ],
                "label": "Ta",
                "properties": {}
            },
            {
                "species": [
                    {
                        "element": "O",
                        "occu": 1
                    }
                ],
                "abc": [
                    0.23210793,
                    0.55039761,
                    0.42088769
                ],
                "xyz": [
                    -1.6352864599066776,
                    -0.1758107288210109,
                    4.783398003232802
                ],
                "label": "O",
                "properties": {}
            },
            {
                "species": [
                    {
                        "element": "O",
                        "occu": 1
                    }
                ],
                "abc": [
                    0.55039761,
                    0.42088769,
                    0.23210793
                ],
                "xyz": [
                    0.6653870103472945,
                    1.5041043286895903,
                    4.7833980032328025
                ],
                "label": "O",
                "properties": {}
            },
            {
                "species": [
                    {
                        "element": "O",
                        "occu": 1
                    }
                ],
                "abc": [
                    0.42088769,
                    0.23210793,
                    0.55039761
                ],
                "xyz": [
                    0.9698994495593831,
                    -1.328294791227878,
                    4.783398003232802
                ],
                "label": "O",
                "properties": {}
            },
            {
                "species": [
                    {
                        "element": "O",
                        "occu": 1
                    }
                ],
                "abc": [
                    0.07911231,
                    0.94960239,
                    0.26789207
                ],
                "xyz": [
                    -4.472343059652706,
                    1.4621645663104093,
                    5.153914846767197
                ],
                "label": "O",
                "properties": {}
            },
            {
                "species": [
                    {
                        "element": "O",
                        "occu": 1
                    }
                ],
                "abc": [
                    0.94960239,
                    0.26789207,
                    0.07911231
                ],
                "xyz": [
                    3.502443610093323,
                    3.1420796238210102,
                    5.153914846767198
                ],
                "label": "O",
                "properties": {}
            },
            {
                "species": [
                    {
                        "element": "O",
                        "occu": 1
                    }
                ],
                "abc": [
                    0.26789207,
                    0.07911231,
                    0.94960239
                ],
                "xyz": [
                    0.9698994495593831,
                    -4.604245473772123,
                    5.153914846767197
                ],
                "label": "O",
                "properties": {}
            },
            {
                "species": [
                    {
                        "element": "O",
                        "occu": 1
                    }
                ],
                "abc": [
                    0.76789207,
                    0.44960239,
                    0.57911231
                ],
                "xyz": [
                    1.6352864599066779,
                    0.17580973882101114,
                    7.141377416767198
                ],
                "label": "O",
                "properties": {}
            },
            {
                "species": [
                    {
                        "element": "O",
                        "occu": 1
                    }
                ],
                "abc": [
                    0.44960239,
                    0.57911231,
                    0.76789207
                ],
                "xyz": [
                    -0.6653870103472941,
                    -1.5041053186895907,
                    7.141377416767197
                ],
                "label": "O",
                "properties": {}
            },
            {
                "species": [
                    {
                        "element": "O",
                        "occu": 1
                    }
                ],
                "abc": [
                    0.57911231,
                    0.76789207,
                    0.44960239
                ],
                "xyz": [
                    -0.9698994495593838,
                    1.3282938012278778,
                    7.141377416767197
                ],
                "label": "O",
                "properties": {}
            },
            {
                "species": [
                    {
                        "element": "O",
                        "occu": 1
                    }
                ],
                "abc": [
                    0.92088769,
                    0.05039761,
                    0.73210793
                ],
                "xyz": [
                    4.472343059652706,
                    -1.462165556310409,
                    6.770860573232802
                ],
                "label": "O",
                "properties": {}
            },
            {
                "species": [
                    {
                        "element": "O",
                        "occu": 1
                    }
                ],
                "abc": [
                    0.73210793,
                    0.92088769,
                    0.05039761
                ],
                "xyz": [
                    -0.9698994495593838,
                    4.6042444837721215,
                    6.770860573232802
                ],
                "label": "O",
                "properties": {}
            },
            {
                "species": [
                    {
                        "element": "O",
                        "occu": 1
                    }
                ],
                "abc": [
                    0.05039761,
                    0.73210793,
                    0.92088769
                ],
                "xyz": [
                    -3.502443610093322,
                    -3.1420806138210104,
                    6.770860573232802
                ],
                "label": "O",
                "properties": {}
            }
        ]
    },
    "spacegroup": {
        "source": "spglib",
        "symbol": "R-3c",
        "number": 167,
        "point_group": "-3m",
        "crystal_system": "trigonal",
        "hall": "-R 3 2\"c"
    },
    "dielectric": {
        "epsilon_ionic": [
            [
                14.80499568,
                0.0,
                -1e-08
            ],
            [
                0.0,
                14.80506929,
                3.03e-06
            ],
            [
                -1e-08,
                3.03e-06,
                9.62561307
            ]
        ],
        "epsilon_ionic_avg": 13.078559346666667,
        "epsilon_ionic_eig": [
            9.625613069998227,
            14.804995680000001,
            14.805069290001773
        ],
        "epsilon_electronic": [
            [
                4.25037897,
                -0.0,
                0.0
            ],
            [
                -0.0,
                4.25037955,
                0.0
            ],
            [
                0.0,
                -0.0,
                3.98868904
            ]
        ],
        "epsilon_electronic_avg": 4.163149186666667,
        "epsilon_electronic_eig": [
            4.25037897,
            4.25037955,
            3.98868904
        ]
    },
    "phonon": {
        "lowest_freq": -0.08325058496009642,
        "frequency": [
            -0.08325058496009642,
            -0.08325057923544868,
            -0.05710575814748916,
            2.3643869722466784,
            2.36438697741504,
            2.3965699507677565,
            2.6022885381967265,
            2.728452586819957,
            2.8989240580567652,
            2.8989240833489216,
            2.970103803024984,
            3.0717190056127888,
            3.0717190374386334,
            3.426858271654667,
            3.4268583144460707,
            3.660046391457888,
            3.660046598460834,
            3.7462687814221276,
            4.180677839090029,
            4.236503154321626,
            4.236503177397273,
            4.394125901035014,
            4.422384999631121,
            4.549313300422167,
            4.549313517997973,
            5.058033908518992,
            5.058034077636174,
            5.3074867578696185,
            5.307487057182811,
            5.398518321598276,
            5.571059819963589,
            5.571059819963589,
            5.917139588717582,
            5.917139650673226,
            6.246736240810304,
            7.574362632997072,
            7.615108193042971,
            7.615108193042971,
            7.634888341551387,
            7.8373369874167285,
            8.250663905460824,
            8.250663949893635,
            8.650340175025246,
            8.650340627077064,
            9.747704476677455,
            10.31823894798084,
            10.318239386175994,
            10.755441086968675,
            10.755441121053767,
            10.94087819686958,
            11.001966132902934,
            11.323504537451837,
            11.323504602202144,
            11.968664850900359,
            13.612675341514494,
            13.612675431283817,
            13.928717123815503,
            14.825359250085349,
            14.825359612761405,
            14.998988832008212,
            14.998988889038754,
            15.128978788664744,
            15.798495300607343,
            15.798495687353238,
            20.17505152302952,
            20.19575634638067
        ]
    },
    "born_effective_charge": {
        "avg_abs_trace": 2.7702309090909094,
        "tensors": [
            [
                [
                    2.84783,
                    0.091,
                    -0.39738
                ],
                [
                    0.09098,
                    2.74279,
                    -0.22947
                ],
                [
                    -0.43091,
                    -0.24876,
                    2.56494
                ]
            ],
            [
                [
                    2.69028,
                    0.0,
                    -0.0
                ],
                [
                    2e-05,
                    2.90037,
                    0.45887
                ],
                [
                    2e-05,
                    0.49755,
                    2.56494
                ]
            ],
            [
                [
                    2.84782,
                    -0.09095,
                    0.39735
                ],
                [
                    -0.09098,
                    2.74279,
                    -0.22947
                ],
                [
                    0.43091,
                    -0.24876,
                    2.56494
                ]
            ],
            [
                [
                    2.84782,
                    0.09095,
                    -0.39735
                ],
                [
                    0.09099,
                    2.74276,
                    -0.2294
                ],
                [
                    -0.43088,
                    -0.2488,
                    2.56494
                ]
            ],
            [
                [
                    2.69023,
                    0.0,
                    -0.0
                ],
                [
                    -2e-05,
                    2.90037,
                    0.45887
                ],
                [
                    -2e-05,
                    0.49755,
                    2.56494
                ]
            ],
            [
                [
                    2.84783,
                    -0.091,
                    0.39738
                ],
                [
                    -0.09099,
                    2.74276,
                    -0.2294
                ],
                [
                    0.43088,
                    -0.2488,
                    2.56494
                ]
            ],
            [
                [
                    0.85225,
                    0.0,
                    -0.0
                ],
                [
                    1e-05,
                    0.85226,
                    0.0
                ],
                [
                    -0.0,
                    0.0,
                    1.31448
                ]
            ],
            [
                [
                    0.85226,
                    0.0,
                    -0.0
                ],
                [
                    -1e-05,
                    0.85226,
                    0.0
                ],
                [
                    -0.0,
                    0.0,
                    1.31448
                ]
            ],
            [
                [
                    6.35747,
                    0.02373,
                    -0.0
                ],
                [
                    -0.02373,
                    6.3575,
                    -0.0
                ],
                [
                    -0.0,
                    0.0,
                    5.50818
                ]
            ],
            [
                [
                    6.35747,
                    -0.02373,
                    0.0
                ],
                [
                    0.02373,
                    6.3575,
                    -0.0
                ],
                [
                    -0.0,
                    0.0,
                    5.50818
                ]
            ],
            [
                [
                    -3.18052,
                    -0.08694,
                    -1.06729
                ],
                [
                    -0.07865,
                    -2.01808,
                    -0.07893
                ],
                [
                    -0.96815,
                    -0.08518,
                    -2.41961
                ]
            ],
            [
                [
                    -2.23693,
                    -0.46611,
                    0.46535
                ],
                [
                    -0.45766,
                    -2.96165,
                    0.96379
                ],
                [
                    0.41031,
                    0.88103,
                    -2.41961
                ]
            ],
            [
                [
                    -2.38043,
                    0.54056,
                    0.60202
                ],
                [
                    0.5489,
                    -2.81814,
                    -0.88477
                ],
                [
                    0.55784,
                    -0.79585,
                    -2.41961
                ]
            ],
            [
                [
                    -2.23693,
                    0.46611,
                    -0.46535
                ],
                [
                    0.45787,
                    -2.96155,
                    0.96373
                ],
                [
                    -0.41042,
                    0.88096,
                    -2.41956
                ]
            ],
            [
                [
                    -3.18052,
                    0.08694,
                    1.06729
                ],
                [
                    0.07865,
                    -2.01809,
                    -0.07892
                ],
                [
                    0.96814,
                    -0.08505,
                    -2.41956
                ]
            ],
            [
                [
                    -2.38043,
                    -0.54056,
                    -0.60202
                ],
                [
                    -0.54889,
                    -2.81818,
                    -0.88491
                ],
                [
                    -0.55773,
                    -0.79591,
                    -2.41956
                ]
            ],
            [
                [
                    -3.18043,
                    -0.08701,
                    -1.06733
                ],
                [
                    -0.07865,
                    -2.01809,
                    -0.07892
                ],
                [
                    -0.96814,
                    -0.08505,
                    -2.41956
                ]
            ],
            [
                [
                    -2.23697,
                    -0.46606,
                    0.46526
                ],
                [
                    -0.45787,
                    -2.96155,
                    0.96373
                ],
                [
                    0.41042,
                    0.88096,
                    -2.41956
                ]
            ],
            [
                [
                    -2.38035,
                    0.54061,
                    0.602
                ],
                [
                    0.54889,
                    -2.81818,
                    -0.88491
                ],
                [
                    0.55773,
                    -0.79591,
                    -2.41956
                ]
            ],
            [
                [
                    -2.23697,
                    0.46606,
                    -0.46526
                ],
                [
                    0.45766,
                    -2.96165,
                    0.96379
                ],
                [
                    -0.41031,
                    0.88103,
                    -2.41961
                ]
            ],
            [
                [
                    -2.38035,
                    -0.54061,
                    -0.602
                ],
                [
                    -0.5489,
                    -2.81814,
                    -0.88477
                ],
                [
                    -0.55784,
                    -0.79585,
                    -2.41961
                ]
            ],
            [
                [
                    -3.18043,
                    0.08701,
                    1.06733
                ],
                [
                    0.07865,
                    -2.01808,
                    -0.07893
                ],
                [
                    0.96815,
                    -0.08518,
                    -2.41961
                ]
            ]
        ]
    },
    "band_gap": 3.5029,
    "is_direct": true,
    "formula": "Ba3NaTaO6"
}