{
    "mp_id": "mp-8409",
    "nelements": 3,
    "nsites": 4,
    "elements": [
        "K",
        "O",
        "Y"
    ],
    "structure": {
        "@module": "pymatgen.core.structure",
        "@class": "Structure",
        "charge": null,
        "lattice": {
            "matrix": [
                [
                    1.72192948,
                    0.99415582,
                    6.19498725
                ],
                [
                    -1.72192948,
                    0.99415582,
                    6.19498725
                ],
                [
                    0.0,
                    -1.98831264,
                    6.19498725
                ]
            ],
            "a": 6.506247302108605,
            "b": 6.506247302108605,
            "c": 6.506247319465064,
            "alpha": 30.69324036982774,
            "beta": 30.69324036982774,
            "gamma": 30.693247421910513,
            "volume": 63.62995755765435
        },
        "sites": [
            {
                "species": [
                    {
                        "element": "K",
                        "occu": 1
                    }
                ],
                "abc": [
                    0.0,
                    0.0,
                    0.0
                ],
                "xyz": [
                    0.0,
                    0.0,
                    0.0
                ],
                "label": "K",
                "properties": {}
            },
            {
                "species": [
                    {
                        "element": "Y",
                        "occu": 1
                    }
                ],
                "abc": [
                    0.5,
                    0.5,
                    0.5
                ],
                "xyz": [
                    0.0,
                    -4.999999999588667e-07,
                    9.292480874999999
                ],
                "label": "Y",
                "properties": {}
            },
            {
                "species": [
                    {
                        "element": "O",
                        "occu": 1
                    }
                ],
                "abc": [
                    0.22815139,
                    0.22815139,
                    0.22815139
                ],
                "xyz": [
                    0.0,
                    -2.281513899471399e-07,
                    4.240184856359333
                ],
                "label": "O",
                "properties": {}
            },
            {
                "species": [
                    {
                        "element": "O",
                        "occu": 1
                    }
                ],
                "abc": [
                    0.77184861,
                    0.77184861,
                    0.77184861
                ],
                "xyz": [
                    0.0,
                    -7.718486099150823e-07,
                    14.344776893640667
                ],
                "label": "O",
                "properties": {}
            }
        ]
    },
    "spacegroup": {
        "source": "spglib",
        "symbol": "R-3m",
        "number": 166,
        "point_group": "-3m",
        "crystal_system": "trigonal",
        "hall": "-R 3 2\""
    },
    "dielectric": {
        "epsilon_ionic": [
            [
                12.53672188,
                -0.0,
                -0.0
            ],
            [
                -0.0,
                12.53684368,
                -1.675e-05
            ],
            [
                -0.0,
                -1.675e-05,
                5.7511726
            ]
        ],
        "epsilon_ionic_avg": 10.274912720000001,
        "epsilon_ionic_eig": [
            5.751172599958654,
            12.536843680041347,
            12.53672188
        ],
        "epsilon_electronic": [
            [
                3.79582864,
                0.0,
                0.0
            ],
            [
                0.0,
                3.79582988,
                -1.8e-07
            ],
            [
                0.0,
                -1.8e-07,
                3.25299063
            ]
        ],
        "epsilon_electronic_avg": 3.61488305,
        "epsilon_electronic_eig": [
            3.2529906299999407,
            3.7958298800000594,
            3.79582864
        ]
    },
    "phonon": {
        "lowest_freq": -0.02974637534335319,
        "frequency": [
            -0.02974637534335319,
            -0.0034312028283839525,
            -0.003431202269238579,
            3.2608214394816635,
            3.2608219678825034,
            6.13965967055626,
            7.6991674461323205,
            7.699168684136874,
            10.579061816520673,
            10.579063537638161,
            11.071566660653122,
            14.101114714921252
        ]
    },
    "born_effective_charge": {
        "avg_abs_trace": 2.3708641666666668,
        "tensors": [
            [
                [
                    1.03302,
                    0.0,
                    0.0
                ],
                [
                    0.0,
                    1.03299,
                    -1e-05
                ],
                [
                    -0.0,
                    -0.0,
                    1.56283
                ]
            ],
            [
                [
                    4.13747,
                    0.0,
                    0.0
                ],
                [
                    -0.0,
                    4.13752,
                    0.0
                ],
                [
                    0.0,
                    0.0,
                    2.32136
                ]
            ],
            [
                [
                    -2.58524,
                    0.00016,
                    0.00023
                ],
                [
                    0.0,
                    -2.58528,
                    2e-05
                ],
                [
                    -0.0,
                    0.0,
                    -1.9421
                ]
            ],
            [
                [
                    -2.58524,
                    -0.00016,
                    -0.00023
                ],
                [
                    0.0,
                    -2.58524,
                    -1e-05
                ],
                [
                    0.0,
                    0.0,
                    -1.94208
                ]
            ]
        ]
    },
    "band_gap": 3.9805,
    "is_direct": false,
    "formula": "KYO2"
}