{
    "mp_id": "mp-8873",
    "nelements": 4,
    "nsites": 7,
    "elements": [
        "B",
        "Ge",
        "Li",
        "O"
    ],
    "structure": {
        "@module": "pymatgen.core.structure",
        "@class": "Structure",
        "charge": null,
        "lattice": {
            "matrix": [
                [
                    -2.266393,
                    2.266393,
                    3.457856
                ],
                [
                    2.266393,
                    -2.266393,
                    3.457856
                ],
                [
                    2.266393,
                    2.266393,
                    -3.457856
                ]
            ],
            "a": 4.714853399378819,
            "b": 4.714853399378819,
            "c": 4.714853399378819,
            "alpha": 122.53876612155895,
            "beta": 122.53876612155895,
            "gamma": 85.65624397173669,
            "volume": 71.04562432612582
        },
        "sites": [
            {
                "species": [
                    {
                        "element": "Li",
                        "occu": 1
                    }
                ],
                "abc": [
                    0.5,
                    0.5,
                    0.0
                ],
                "xyz": [
                    0.0,
                    0.0,
                    3.457856
                ],
                "label": "Li",
                "properties": {}
            },
            {
                "species": [
                    {
                        "element": "Ge",
                        "occu": 1
                    }
                ],
                "abc": [
                    0.0,
                    0.0,
                    0.0
                ],
                "xyz": [
                    0.0,
                    0.0,
                    0.0
                ],
                "label": "Ge",
                "properties": {}
            },
            {
                "species": [
                    {
                        "element": "B",
                        "occu": 1
                    }
                ],
                "abc": [
                    0.25,
                    0.75,
                    0.5
                ],
                "xyz": [
                    2.266393,
                    0.0,
                    1.728928
                ],
                "label": "B",
                "properties": {}
            },
            {
                "species": [
                    {
                        "element": "O",
                        "occu": 1
                    }
                ],
                "abc": [
                    0.307186,
                    0.423135,
                    0.463977
                ],
                "xyz": [
                    1.314340226918,
                    0.788768223004,
                    0.9209791984640001
                ],
                "label": "O",
                "properties": {}
            },
            {
                "species": [
                    {
                        "element": "O",
                        "occu": 1
                    }
                ],
                "abc": [
                    0.959159,
                    0.843209,
                    0.536023
                ],
                "xyz": [
                    0.9520505066890002,
                    1.4776270433889998,
                    4.378838656319999
                ],
                "label": "O",
                "properties": {}
            },
            {
                "species": [
                    {
                        "element": "O",
                        "occu": 1
                    }
                ],
                "abc": [
                    0.156791,
                    0.692814,
                    0.115949
                ],
                "xyz": [
                    1.477624776996,
                    -0.9520527730820002,
                    2.5368768015360006
                ],
                "label": "O",
                "properties": {}
            },
            {
                "species": [
                    {
                        "element": "O",
                        "occu": 1
                    }
                ],
                "abc": [
                    0.576865,
                    0.040841,
                    0.884051
                ],
                "xyz": [
                    0.7887659566109999,
                    3.2184480394749997,
                    -0.9209826563200001
                ],
                "label": "O",
                "properties": {}
            }
        ]
    },
    "spacegroup": {
        "source": "spglib",
        "symbol": "I-4",
        "number": 82,
        "point_group": "-4",
        "crystal_system": "tetragonal",
        "hall": "I -4"
    },
    "dielectric": {
        "epsilon_ionic": [
            [
                3.24437838,
                2.455e-05,
                -0.00014349
            ],
            [
                2.455e-05,
                3.24436493,
                -0.00010762
            ],
            [
                -0.00014349,
                -0.00010762,
                3.99788696
            ]
        ],
        "epsilon_ionic_avg": 3.495543423333333,
        "epsilon_ionic_eig": [
            3.9978870026965834,
            3.2443970667386153,
            3.244346200564801
        ],
        "epsilon_electronic": [
            [
                3.05644743,
                9.85e-06,
                0.0
            ],
            [
                -9.85e-06,
                3.05644743,
                0.0
            ],
            [
                0.0,
                0.0,
                3.11461484
            ]
        ],
        "epsilon_electronic_avg": 3.0758365666666667,
        "epsilon_electronic_eig": [
            3.05644743,
            3.05644743,
            3.11461484
        ]
    },
    "phonon": {
        "lowest_freq": -0.02455046319653019,
        "frequency": [
            -0.02455046319653019,
            -0.02455046319653019,
            -0.01832147093947029,
            6.799678817080252,
            6.799678817080252,
            8.979792442600871,
            10.842460727597812,
            11.598906580655191,
            12.280661363588846,
            12.280661363588846,
            13.89284946223292,
            13.89284946223292,
            15.760503581883894,
            17.36499144195151,
            21.797267932529778,
            23.282064733250106,
            23.282064733250106,
            26.58240067808949,
            27.013496098485597,
            27.65976937444086,
            27.65976937444086
        ]
    },
    "born_effective_charge": {
        "avg_abs_trace": 1.9701080952380956,
        "tensors": [
            [
                [
                    1.13541,
                    0.01224,
                    -5e-05
                ],
                [
                    -0.01225,
                    1.1354,
                    -5e-05
                ],
                [
                    0.0,
                    -0.0,
                    0.99569
                ]
            ],
            [
                [
                    3.33759,
                    0.28186,
                    -8e-05
                ],
                [
                    -0.28199,
                    3.3377,
                    -8e-05
                ],
                [
                    0.0,
                    -0.0,
                    3.43713
                ]
            ],
            [
                [
                    2.3974,
                    -0.77094,
                    -0.00013
                ],
                [
                    0.77088,
                    2.39728,
                    -0.00014
                ],
                [
                    0.0,
                    -0.0,
                    2.51253
                ]
            ],
            [
                [
                    -2.00652,
                    0.19523,
                    -0.67148
                ],
                [
                    -0.04291,
                    -1.4286,
                    0.20605
                ],
                [
                    -0.67984,
                    0.25195,
                    -1.73639
                ]
            ],
            [
                [
                    -2.00653,
                    0.19554,
                    0.67149
                ],
                [
                    -0.04313,
                    -1.42866,
                    -0.206
                ],
                [
                    0.67984,
                    -0.25195,
                    -1.73639
                ]
            ],
            [
                [
                    -1.42863,
                    0.04293,
                    0.20601
                ],
                [
                    -0.19535,
                    -2.00673,
                    0.67154
                ],
                [
                    0.25188,
                    0.67978,
                    -1.73629
                ]
            ],
            [
                [
                    -1.42872,
                    0.04315,
                    -0.20577
                ],
                [
                    -0.19526,
                    -2.00639,
                    -0.67133
                ],
                [
                    -0.25188,
                    -0.67978,
                    -1.73629
                ]
            ]
        ]
    },
    "band_gap": 4.367,
    "is_direct": false,
    "formula": "LiGeBO4"
}