{
    "mp_id": "mp-8871",
    "nelements": 4,
    "nsites": 14,
    "elements": [
        "B",
        "Cs",
        "Na",
        "O"
    ],
    "structure": {
        "@module": "pymatgen.core.structure",
        "@class": "Structure",
        "charge": null,
        "lattice": {
            "matrix": [
                [
                    5.75093905,
                    0.0,
                    0.0
                ],
                [
                    0.0,
                    6.15420147,
                    0.0
                ],
                [
                    0.0,
                    0.0,
                    5.55314962
                ]
            ],
            "a": 5.75093905,
            "b": 6.15420147,
            "c": 5.55314962,
            "alpha": 90.0,
            "beta": 90.0,
            "gamma": 90.0,
            "volume": 196.53950116158998
        },
        "sites": [
            {
                "species": [
                    {
                        "element": "Cs",
                        "occu": 1
                    }
                ],
                "abc": [
                    0.5,
                    0.5,
                    0.8720554
                ],
                "xyz": [
                    2.875469525,
                    3.077100735,
                    4.8426541131289484
                ],
                "label": "Cs",
                "properties": {}
            },
            {
                "species": [
                    {
                        "element": "Cs",
                        "occu": 1
                    }
                ],
                "abc": [
                    0.0,
                    0.0,
                    0.1279446
                ],
                "xyz": [
                    0.0,
                    0.0,
                    0.710495506871052
                ],
                "label": "Cs",
                "properties": {}
            },
            {
                "species": [
                    {
                        "element": "Na",
                        "occu": 1
                    }
                ],
                "abc": [
                    0.5,
                    0.76833717,
                    0.36157889
                ],
                "xyz": [
                    2.875469525,
                    4.72850174106964,
                    2.007901675603522
                ],
                "label": "Na",
                "properties": {}
            },
            {
                "species": [
                    {
                        "element": "Na",
                        "occu": 1
                    }
                ],
                "abc": [
                    0.5,
                    0.23166283,
                    0.36157889
                ],
                "xyz": [
                    2.875469525,
                    1.4256997289303601,
                    2.007901675603522
                ],
                "label": "Na",
                "properties": {}
            },
            {
                "species": [
                    {
                        "element": "Na",
                        "occu": 1
                    }
                ],
                "abc": [
                    0.0,
                    0.73166283,
                    0.63842111
                ],
                "xyz": [
                    0.0,
                    4.5028004639303605,
                    3.545247944396478
                ],
                "label": "Na",
                "properties": {}
            },
            {
                "species": [
                    {
                        "element": "Na",
                        "occu": 1
                    }
                ],
                "abc": [
                    0.0,
                    0.26833717,
                    0.63842111
                ],
                "xyz": [
                    0.0,
                    1.65140100606964,
                    3.545247944396478
                ],
                "label": "Na",
                "properties": {}
            },
            {
                "species": [
                    {
                        "element": "B",
                        "occu": 1
                    }
                ],
                "abc": [
                    0.5,
                    0.0,
                    0.78190805
                ],
                "xyz": [
                    2.875469525,
                    0.0,
                    4.342052390732441
                ],
                "label": "B",
                "properties": {}
            },
            {
                "species": [
                    {
                        "element": "B",
                        "occu": 1
                    }
                ],
                "abc": [
                    0.0,
                    0.5,
                    0.21809195
                ],
                "xyz": [
                    0.0,
                    3.077100735,
                    1.211097229267559
                ],
                "label": "B",
                "properties": {}
            },
            {
                "species": [
                    {
                        "element": "O",
                        "occu": 1
                    }
                ],
                "abc": [
                    0.2917193,
                    0.0,
                    0.64955415
                ],
                "xyz": [
                    1.6776599140086652,
                    0.0,
                    3.6070713812419233
                ],
                "label": "O",
                "properties": {}
            },
            {
                "species": [
                    {
                        "element": "O",
                        "occu": 1
                    }
                ],
                "abc": [
                    0.2082807,
                    0.5,
                    0.35044585
                ],
                "xyz": [
                    1.1978096109913352,
                    3.077100735,
                    1.946078238758077
                ],
                "label": "O",
                "properties": {}
            },
            {
                "species": [
                    {
                        "element": "O",
                        "occu": 1
                    }
                ],
                "abc": [
                    0.5,
                    0.0,
                    0.0316213
                ],
                "xyz": [
                    2.875469525,
                    0.0,
                    0.17559781007890599
                ],
                "label": "O",
                "properties": {}
            },
            {
                "species": [
                    {
                        "element": "O",
                        "occu": 1
                    }
                ],
                "abc": [
                    0.0,
                    0.5,
                    0.9683787
                ],
                "xyz": [
                    0.0,
                    3.077100735,
                    5.377551809921094
                ],
                "label": "O",
                "properties": {}
            },
            {
                "species": [
                    {
                        "element": "O",
                        "occu": 1
                    }
                ],
                "abc": [
                    0.7917193,
                    0.5,
                    0.35044585
                ],
                "xyz": [
                    4.553129439008665,
                    3.077100735,
                    1.946078238758077
                ],
                "label": "O",
                "properties": {}
            },
            {
                "species": [
                    {
                        "element": "O",
                        "occu": 1
                    }
                ],
                "abc": [
                    0.7082807,
                    0.0,
                    0.64955415
                ],
                "xyz": [
                    4.073279135991335,
                    0.0,
                    3.6070713812419233
                ],
                "label": "O",
                "properties": {}
            }
        ]
    },
    "spacegroup": {
        "source": "spglib",
        "symbol": "Pmmn",
        "number": 59,
        "point_group": "mmm",
        "crystal_system": "orthorhombic",
        "hall": "P 2 2ab -1ab"
    },
    "dielectric": {
        "epsilon_ionic": [
            [
                4.87318927,
                -2e-08,
                2e-08
            ],
            [
                -2e-08,
                3.98949841,
                -4e-08
            ],
            [
                2e-08,
                -4e-08,
                5.23666933
            ]
        ],
        "epsilon_ionic_avg": 4.699785669999999,
        "epsilon_ionic_eig": [
            4.873189269999999,
            5.236669330000001,
            3.9894984099999977
        ],
        "epsilon_electronic": [
            [
                2.95912035,
                0.0,
                0.0
            ],
            [
                0.0,
                2.81302533,
                0.0
            ],
            [
                0.0,
                0.0,
                2.87413819
            ]
        ],
        "epsilon_electronic_avg": 2.8820946233333333,
        "epsilon_electronic_eig": [
            2.95912035,
            2.81302533,
            2.87413819
        ]
    },
    "phonon": {
        "lowest_freq": -0.29899831509050473,
        "frequency": [
            -0.29899831509050473,
            -0.09892176949025278,
            -0.03812494650456825,
            1.9082603594241594,
            2.047968093317322,
            2.107950001544872,
            3.119182424728063,
            3.2888012841288727,
            3.4646640602329586,
            4.0900419598528925,
            4.167166290913501,
            4.360867829170172,
            4.727784924195468,
            5.116850220549423,
            5.461503283314464,
            5.67003092082127,
            5.836810325224235,
            5.838062379292008,
            6.019611045085641,
            6.034492197109537,
            6.213531331905239,
            6.461178278057978,
            6.7690102656799045,
            6.868973194675757,
            6.894086562049831,
            6.924001880540047,
            7.258907520580678,
            7.368519973164472,
            7.617501732704498,
            8.16950768604113,
            15.748777459850363,
            15.84717758226185,
            17.08340204592836,
            17.12694683263447,
            22.714853188468478,
            22.743356817550843,
            25.91664640689004,
            26.000947740828526,
            33.482158996004166,
            34.396295421577406,
            36.367944321102556,
            36.43948723777291
        ]
    },
    "born_effective_charge": {
        "avg_abs_trace": 1.4730980952380952,
        "tensors": [
            [
                [
                    1.60344,
                    -0.0,
                    0.00018
                ],
                [
                    0.0,
                    1.26568,
                    0.00017
                ],
                [
                    0.0,
                    -0.0,
                    1.11317
                ]
            ],
            [
                [
                    1.60344,
                    -0.0,
                    -0.00018
                ],
                [
                    0.0,
                    1.26568,
                    -0.00017
                ],
                [
                    0.0,
                    -0.0,
                    1.11326
                ]
            ],
            [
                [
                    1.02131,
                    3e-05,
                    -2e-05
                ],
                [
                    0.0,
                    1.02296,
                    0.03408
                ],
                [
                    0.0,
                    0.0535,
                    1.16789
                ]
            ],
            [
                [
                    1.02131,
                    -3e-05,
                    -2e-05
                ],
                [
                    0.0,
                    1.02298,
                    -0.03405
                ],
                [
                    0.0,
                    -0.0535,
                    1.16789
                ]
            ],
            [
                [
                    1.02131,
                    -3e-05,
                    2e-05
                ],
                [
                    0.0,
                    1.02298,
                    0.03405
                ],
                [
                    0.0,
                    0.05352,
                    1.16789
                ]
            ],
            [
                [
                    1.02131,
                    3e-05,
                    2e-05
                ],
                [
                    0.0,
                    1.02296,
                    -0.03408
                ],
                [
                    0.0,
                    -0.05352,
                    1.16789
                ]
            ],
            [
                [
                    2.44668,
                    -0.0,
                    -8e-05
                ],
                [
                    0.0,
                    0.41508,
                    -2e-05
                ],
                [
                    0.0,
                    -0.0,
                    2.19886
                ]
            ],
            [
                [
                    2.44668,
                    -0.0,
                    8e-05
                ],
                [
                    0.0,
                    0.41508,
                    2e-05
                ],
                [
                    0.0,
                    -0.0,
                    2.19934
                ]
            ],
            [
                [
                    -2.16934,
                    -0.0,
                    -0.50023
                ],
                [
                    -9e-05,
                    -1.19151,
                    -7e-05
                ],
                [
                    -0.44856,
                    -0.0,
                    -1.71479
                ]
            ],
            [
                [
                    -2.16954,
                    -0.0,
                    -0.50008
                ],
                [
                    9e-05,
                    -1.19151,
                    7e-05
                ],
                [
                    -0.44858,
                    -0.0,
                    -1.71506
                ]
            ],
            [
                [
                    -1.75386,
                    -0.0,
                    0.0005
                ],
                [
                    0.0,
                    -1.34368,
                    -0.00025
                ],
                [
                    0.0,
                    -0.0,
                    -2.21802
                ]
            ],
            [
                [
                    -1.75386,
                    -0.0,
                    -0.0005
                ],
                [
                    0.0,
                    -1.34368,
                    0.00025
                ],
                [
                    0.0,
                    -0.0,
                    -2.21845
                ]
            ],
            [
                [
                    -2.16934,
                    -0.0,
                    0.50023
                ],
                [
                    -9e-05,
                    -1.19151,
                    7e-05
                ],
                [
                    0.44858,
                    -0.0,
                    -1.71506
                ]
            ],
            [
                [
                    -2.16954,
                    -0.0,
                    0.50008
                ],
                [
                    9e-05,
                    -1.19151,
                    -7e-05
                ],
                [
                    0.44856,
                    -0.0,
                    -1.71479
                ]
            ]
        ]
    },
    "band_gap": 3.5746,
    "is_direct": false,
    "formula": "CsNa2BO3"
}