{
    "mp_id": "mp-886",
    "nelements": 2,
    "nsites": 10,
    "elements": [
        "Ga",
        "O"
    ],
    "structure": {
        "@module": "pymatgen.core.structure",
        "@class": "Structure",
        "charge": null,
        "lattice": {
            "matrix": [
                [
                    6.13975995,
                    -1.52520906,
                    -0.00142167
                ],
                [
                    6.13975995,
                    1.52520906,
                    -0.00142167
                ],
                [
                    -1.37737753,
                    0.0,
                    5.64818587
                ]
            ],
            "a": 6.326366804215172,
            "b": 6.326366804215172,
            "c": 5.813705572370909,
            "alpha": 103.30584620283099,
            "beta": 103.30584620283099,
            "gamma": 27.90148933213432,
            "volume": 105.77796797425292
        },
        "sites": [
            {
                "species": [
                    {
                        "element": "Ga",
                        "occu": 1
                    }
                ],
                "abc": [
                    0.34126799,
                    0.34126799,
                    0.68590733
                ],
                "xyz": [
                    3.2458537304337067,
                    0.0,
                    3.8731617485087404
                ],
                "label": "Ga",
                "properties": {}
            },
            {
                "species": [
                    {
                        "element": "Ga",
                        "occu": 1
                    }
                ],
                "abc": [
                    0.65873201,
                    0.65873201,
                    0.31409267
                ],
                "xyz": [
                    7.656288639566295,
                    0.0,
                    1.7721807814912593
                ],
                "label": "Ga",
                "properties": {}
            },
            {
                "species": [
                    {
                        "element": "Ga",
                        "occu": 1
                    }
                ],
                "abc": [
                    0.90959871,
                    0.90959871,
                    0.20489998
                ],
                "xyz": [
                    10.88721083210988,
                    0.0,
                    1.1547268734031912
                ],
                "label": "Ga",
                "properties": {}
            },
            {
                "species": [
                    {
                        "element": "Ga",
                        "occu": 1
                    }
                ],
                "abc": [
                    0.09040129,
                    0.09040129,
                    0.79510002
                ],
                "xyz": [
                    0.014931537890120472,
                    0.0,
                    4.490615656596809
                ],
                "label": "Ga",
                "properties": {}
            },
            {
                "species": [
                    {
                        "element": "O",
                        "occu": 1
                    }
                ],
                "abc": [
                    0.50375811,
                    0.50375811,
                    0.74401838
                ],
                "xyz": [
                    5.161113538012389,
                    0.0,
                    4.200921745351803
                ],
                "label": "O",
                "properties": {}
            },
            {
                "species": [
                    {
                        "element": "O",
                        "occu": 1
                    }
                ],
                "abc": [
                    0.49624189,
                    0.49624189,
                    0.25598162
                ],
                "xyz": [
                    5.741028831987613,
                    0.0,
                    1.444420784648197
                ],
                "label": "O",
                "properties": {}
            },
            {
                "species": [
                    {
                        "element": "O",
                        "occu": 1
                    }
                ],
                "abc": [
                    0.82677598,
                    0.82677598,
                    0.4371553
                ],
                "xyz": [
                    9.550284211911594,
                    0.0,
                    2.466783583240638
                ],
                "label": "O",
                "properties": {}
            },
            {
                "species": [
                    {
                        "element": "O",
                        "occu": 1
                    }
                ],
                "abc": [
                    0.17322402,
                    0.17322402,
                    0.5628447
                ],
                "xyz": [
                    1.3518581580884073,
                    0.0,
                    3.178558946759362
                ],
                "label": "O",
                "properties": {}
            },
            {
                "species": [
                    {
                        "element": "O",
                        "occu": 1
                    }
                ],
                "abc": [
                    0.16514556,
                    0.16514556,
                    0.10924417
                ],
                "xyz": [
                    1.8774377253751438,
                    0.0,
                    0.6165618123973076
                ],
                "label": "O",
                "properties": {}
            },
            {
                "species": [
                    {
                        "element": "O",
                        "occu": 1
                    }
                ],
                "abc": [
                    0.83485444,
                    0.83485444,
                    0.89075583
                ],
                "xyz": [
                    9.024704644624856,
                    0.0,
                    5.028780717602692
                ],
                "label": "O",
                "properties": {}
            }
        ]
    },
    "spacegroup": {
        "source": "spglib",
        "symbol": "C2/m",
        "number": 12,
        "point_group": "2/m",
        "crystal_system": "monoclinic",
        "hall": "-C 2y"
    },
    "dielectric": {
        "epsilon_ionic": [
            [
                6.97350856,
                0.0,
                -0.72578376
            ],
            [
                0.0,
                6.73649159,
                -0.0
            ],
            [
                -0.72578376,
                -0.0,
                9.42621688
            ]
        ],
        "epsilon_ionic_avg": 7.712072343333333,
        "epsilon_ionic_eig": [
            6.774834091505455,
            9.624891348494545,
            6.73649159
        ],
        "epsilon_electronic": [
            [
                4.03667193,
                0.0,
                -0.00317318
            ],
            [
                0.0,
                4.1359922,
                0.0
            ],
            [
                -0.00317189,
                0.0,
                4.13901566
            ]
        ],
        "epsilon_electronic_avg": 4.103893263333333,
        "epsilon_electronic_eig": [
            4.036573679479471,
            4.139113910520529,
            4.1359922
        ]
    },
    "phonon": {
        "lowest_freq": -0.0753401286356261,
        "frequency": [
            -0.0753401286356261,
            -0.04382604934297939,
            -0.02291004018709788,
            3.0349594343667965,
            3.299080404788895,
            4.226425093872298,
            4.446172711837113,
            4.779681160471975,
            5.603419445986512,
            5.716620288556652,
            7.368504533377271,
            8.043445666207747,
            8.734266240447848,
            9.184055185380004,
            9.994630153439909,
            10.233967222240013,
            10.285804756472471,
            11.543028498007054,
            12.319629569797751,
            13.085363136309773,
            13.483342541158928,
            13.8410218536108,
            16.368097280986227,
            18.05879972088966,
            18.87978543179636,
            18.8912257305616,
            19.192150980586906,
            19.809545594739628,
            21.2813495896111,
            21.89593380079264
        ]
    },
    "born_effective_charge": {
        "avg_abs_trace": 2.4529286666666663,
        "tensors": [
            [
                [
                    3.21915,
                    0.0,
                    0.33353
                ],
                [
                    -3e-05,
                    3.42297,
                    1e-05
                ],
                [
                    0.18036,
                    0.0,
                    3.10921
                ]
            ],
            [
                [
                    3.2192,
                    0.0,
                    0.3336
                ],
                [
                    3e-05,
                    3.42297,
                    -1e-05
                ],
                [
                    0.18024,
                    0.0,
                    3.10919
                ]
            ],
            [
                [
                    2.73217,
                    0.0,
                    -0.27539
                ],
                [
                    -4e-05,
                    2.87182,
                    -1e-05
                ],
                [
                    -0.15621,
                    0.0,
                    3.04166
                ]
            ],
            [
                [
                    2.7322,
                    0.0,
                    -0.2754
                ],
                [
                    4e-05,
                    2.87182,
                    1e-05
                ],
                [
                    -0.15614,
                    0.0,
                    3.04158
                ]
            ],
            [
                [
                    -2.27472,
                    0.0,
                    -0.20717
                ],
                [
                    -9e-05,
                    -2.24764,
                    -2e-05
                ],
                [
                    -0.22561,
                    0.0,
                    -1.38715
                ]
            ],
            [
                [
                    -2.27471,
                    0.0,
                    -0.20724
                ],
                [
                    9e-05,
                    -2.24764,
                    2e-05
                ],
                [
                    -0.2253,
                    0.0,
                    -1.38709
                ]
            ],
            [
                [
                    -2.22539,
                    0.0,
                    0.2075
                ],
                [
                    -8e-05,
                    -1.95799,
                    -9e-05
                ],
                [
                    0.2343,
                    0.0,
                    -2.28311
                ]
            ],
            [
                [
                    -2.22534,
                    0.0,
                    0.20758
                ],
                [
                    8e-05,
                    -1.95799,
                    9e-05
                ],
                [
                    0.23396,
                    0.0,
                    -2.28322
                ]
            ],
            [
                [
                    -1.45134,
                    0.0,
                    -0.05855
                ],
                [
                    1e-05,
                    -2.08915,
                    -4e-05
                ],
                [
                    -0.0328,
                    0.0,
                    -2.48045
                ]
            ],
            [
                [
                    -1.45122,
                    0.0,
                    -0.05847
                ],
                [
                    -1e-05,
                    -2.08915,
                    4e-05
                ],
                [
                    -0.03281,
                    0.0,
                    -2.48062
                ]
            ]
        ]
    },
    "band_gap": 2.2143,
    "is_direct": false,
    "formula": "Ga2O3"
}