{
    "mp_id": "mp-8188",
    "nelements": 3,
    "nsites": 4,
    "elements": [
        "K",
        "O",
        "Sc"
    ],
    "structure": {
        "@module": "pymatgen.core.structure",
        "@class": "Structure",
        "charge": null,
        "lattice": {
            "matrix": [
                [
                    1.59965678,
                    0.92356241,
                    6.10647818
                ],
                [
                    -1.59965678,
                    0.92356241,
                    6.10647818
                ],
                [
                    0.0,
                    -1.84712481,
                    6.10647818
                ]
            ],
            "a": 6.379729234205875,
            "b": 6.379729234205875,
            "c": 6.3797292910070755,
            "alpha": 29.04267928524656,
            "beta": 29.04267928524656,
            "gamma": 29.04267618460777,
            "volume": 54.129637392927435
        },
        "sites": [
            {
                "species": [
                    {
                        "element": "K",
                        "occu": 1
                    }
                ],
                "abc": [
                    0.0,
                    0.0,
                    0.0
                ],
                "xyz": [
                    0.0,
                    0.0,
                    0.0
                ],
                "label": "K",
                "properties": {}
            },
            {
                "species": [
                    {
                        "element": "Sc",
                        "occu": 1
                    }
                ],
                "abc": [
                    0.5,
                    0.5,
                    0.5
                ],
                "xyz": [
                    0.0,
                    4.999999969612645e-09,
                    9.15971727
                ],
                "label": "Sc",
                "properties": {}
            },
            {
                "species": [
                    {
                        "element": "O",
                        "occu": 1
                    }
                ],
                "abc": [
                    0.77463865,
                    0.77463865,
                    0.77463865
                ],
                "xyz": [
                    0.0,
                    7.74638642120351e-09,
                    14.190942040828968
                ],
                "label": "O",
                "properties": {}
            },
            {
                "species": [
                    {
                        "element": "O",
                        "occu": 1
                    }
                ],
                "abc": [
                    0.22536135,
                    0.22536135,
                    0.22536135
                ],
                "xyz": [
                    0.0,
                    2.2536135180217798e-09,
                    4.1284924991710295
                ],
                "label": "O",
                "properties": {}
            }
        ]
    },
    "spacegroup": {
        "source": "spglib",
        "symbol": "R-3m",
        "number": 166,
        "point_group": "-3m",
        "crystal_system": "trigonal",
        "hall": "-R 3 2\""
    },
    "dielectric": {
        "epsilon_ionic": [
            [
                15.44478114,
                -0.0,
                -0.0
            ],
            [
                -0.0,
                15.44405211,
                -2.718e-05
            ],
            [
                -0.0,
                -2.718e-05,
                5.28450869
            ]
        ],
        "epsilon_ionic_avg": 12.057780646666666,
        "epsilon_ionic_eig": [
            5.284508689927286,
            15.444052110072715,
            15.44478114
        ],
        "epsilon_electronic": [
            [
                4.18423734,
                0.0,
                0.0
            ],
            [
                0.0,
                4.18423674,
                -1.9e-07
            ],
            [
                0.0,
                -1.9e-07,
                3.46467199
            ]
        ],
        "epsilon_electronic_avg": 3.944382023333333,
        "epsilon_electronic_eig": [
            3.4646719899999496,
            4.18423674000005,
            4.18423734
        ]
    },
    "phonon": {
        "lowest_freq": -0.0056475866379255635,
        "frequency": [
            -0.0056475866379255635,
            -0.005647586226811671,
            -0.005626484530196804,
            3.8920283099472623,
            3.892028589385247,
            7.175674463511145,
            8.500604979593577,
            8.500605583362674,
            11.40623660149555,
            11.40623741571719,
            14.561961633107822,
            15.953987210295136
        ]
    },
    "born_effective_charge": {
        "avg_abs_trace": 2.450100833333333,
        "tensors": [
            [
                [
                    1.02956,
                    0.0,
                    -0.0
                ],
                [
                    0.0,
                    1.0295,
                    -2e-05
                ],
                [
                    0.0,
                    -0.0,
                    1.7175
                ]
            ],
            [
                [
                    4.37106,
                    -0.0,
                    -0.0
                ],
                [
                    0.0,
                    4.37099,
                    1e-05
                ],
                [
                    0.0,
                    -0.0,
                    2.182
                ]
            ],
            [
                [
                    -2.70031,
                    -0.00013,
                    -0.00024
                ],
                [
                    0.0,
                    -2.70022,
                    -1e-05
                ],
                [
                    0.0,
                    0.0,
                    -1.94972
                ]
            ],
            [
                [
                    -2.70031,
                    0.00013,
                    0.00024
                ],
                [
                    0.0,
                    -2.70026,
                    2e-05
                ],
                [
                    0.0,
                    0.0,
                    -1.94978
                ]
            ]
        ]
    },
    "band_gap": 3.5355,
    "is_direct": false,
    "formula": "KScO2"
}