{
    "mp_id": "mp-8075",
    "nelements": 4,
    "nsites": 26,
    "elements": [
        "Be",
        "Na",
        "O",
        "Sb"
    ],
    "structure": {
        "@module": "pymatgen.core.structure",
        "@class": "Structure",
        "charge": null,
        "lattice": {
            "matrix": [
                [
                    5.44740853,
                    0.0,
                    0.0
                ],
                [
                    -2.72370477,
                    4.71759445,
                    0.0
                ],
                [
                    0.0,
                    0.0,
                    8.87967987
                ]
            ],
            "a": 5.44740853,
            "b": 5.447409023452485,
            "c": 8.87967987,
            "alpha": 90.0,
            "beta": 90.0,
            "gamma": 120.00000313676732,
            "volume": 228.19591160894893
        },
        "sites": [
            {
                "species": [
                    {
                        "element": "Na",
                        "occu": 1
                    }
                ],
                "abc": [
                    0.666667,
                    0.333333,
                    0.12607699
                ],
                "xyz": [
                    2.7237068203711,
                    1.57252991080185,
                    1.1195233101731914
                ],
                "label": "Na",
                "properties": {}
            },
            {
                "species": [
                    {
                        "element": "Na",
                        "occu": 1
                    }
                ],
                "abc": [
                    0.333333,
                    0.666667,
                    0.62607699
                ],
                "xyz": [
                    -3.0603711000942724e-06,
                    3.14506453919815,
                    5.559363245173192
                ],
                "label": "Na",
                "properties": {}
            },
            {
                "species": [
                    {
                        "element": "Be",
                        "occu": 1
                    }
                ],
                "abc": [
                    0.83440311,
                    0.16559689,
                    0.81335924
                ],
                "xyz": [
                    4.094297579682363,
                    0.7812189692012604,
                    7.2223696705065
                ],
                "label": "Be",
                "properties": {}
            },
            {
                "species": [
                    {
                        "element": "Be",
                        "occu": 1
                    }
                ],
                "abc": [
                    0.66880621,
                    0.83440311,
                    0.31335924
                ],
                "xyz": [
                    1.3705929224611362,
                    3.9363754807987394,
                    2.7825297355064986
                ],
                "label": "Be",
                "properties": {}
            },
            {
                "species": [
                    {
                        "element": "Be",
                        "occu": 1
                    }
                ],
                "abc": [
                    0.16559689,
                    0.33119379,
                    0.31335924
                ],
                "xyz": [
                    -1.9448990662418453e-07,
                    1.5624379855784654,
                    2.7825297355064986
                ],
                "label": "Be",
                "properties": {}
            },
            {
                "species": [
                    {
                        "element": "Be",
                        "occu": 1
                    }
                ],
                "abc": [
                    0.16559689,
                    0.83440311,
                    0.31335924
                ],
                "xyz": [
                    -1.370593819682363,
                    3.9363754807987394,
                    2.7825297355064986
                ],
                "label": "Be",
                "properties": {}
            },
            {
                "species": [
                    {
                        "element": "Be",
                        "occu": 1
                    }
                ],
                "abc": [
                    0.0,
                    0.0,
                    0.06069149
                ],
                "xyz": [
                    0.0,
                    0.0,
                    0.5389210020333063
                ],
                "label": "Be",
                "properties": {}
            },
            {
                "species": [
                    {
                        "element": "Be",
                        "occu": 1
                    }
                ],
                "abc": [
                    0.0,
                    0.0,
                    0.56069149
                ],
                "xyz": [
                    0.0,
                    0.0,
                    4.978760937033306
                ],
                "label": "Be",
                "properties": {}
            },
            {
                "species": [
                    {
                        "element": "Be",
                        "occu": 1
                    }
                ],
                "abc": [
                    0.33119379,
                    0.16559689,
                    0.81335924
                ],
                "xyz": [
                    1.3531108375388632,
                    0.7812189692012604,
                    7.2223696705065
                ],
                "label": "Be",
                "properties": {}
            },
            {
                "species": [
                    {
                        "element": "Be",
                        "occu": 1
                    }
                ],
                "abc": [
                    0.83440311,
                    0.66880621,
                    0.81335924
                ],
                "xyz": [
                    2.723703954489906,
                    3.1551564644215344,
                    7.2223696705065
                ],
                "label": "Be",
                "properties": {}
            },
            {
                "species": [
                    {
                        "element": "Sb",
                        "occu": 1
                    }
                ],
                "abc": [
                    0.666667,
                    0.333333,
                    0.50043267
                ],
                "xyz": [
                    2.7237068203711,
                    1.57252991080185,
                    4.4436819060893535
                ],
                "label": "Sb",
                "properties": {}
            },
            {
                "species": [
                    {
                        "element": "Sb",
                        "occu": 1
                    }
                ],
                "abc": [
                    0.333333,
                    0.666667,
                    0.00043267
                ],
                "xyz": [
                    -3.0603711000942724e-06,
                    3.14506453919815,
                    0.0038419710893529
                ],
                "label": "Sb",
                "properties": {}
            },
            {
                "species": [
                    {
                        "element": "O",
                        "occu": 1
                    }
                ],
                "abc": [
                    0.83913655,
                    0.67827311,
                    0.62884156
                ],
                "xyz": [
                    2.723703895235036,
                    3.1998174593202395,
                    5.583911741751398
                ],
                "label": "O",
                "properties": {}
            },
            {
                "species": [
                    {
                        "element": "O",
                        "occu": 1
                    }
                ],
                "abc": [
                    0.0,
                    0.0,
                    0.37518819
                ],
                "xyz": [
                    0.0,
                    0.0,
                    3.331551018204735
                ],
                "label": "O",
                "properties": {}
            },
            {
                "species": [
                    {
                        "element": "O",
                        "occu": 1
                    }
                ],
                "abc": [
                    0.0,
                    0.0,
                    0.87518819
                ],
                "xyz": [
                    0.0,
                    0.0,
                    7.771390953204736
                ],
                "label": "O",
                "properties": {}
            },
            {
                "species": [
                    {
                        "element": "O",
                        "occu": 1
                    }
                ],
                "abc": [
                    0.16086345,
                    0.32172689,
                    0.12884156
                ],
                "xyz": [
                    -1.3523503683554594e-07,
                    1.5177769906797605,
                    1.1440718067513973
                ],
                "label": "O",
                "properties": {}
            },
            {
                "species": [
                    {
                        "element": "O",
                        "occu": 1
                    }
                ],
                "abc": [
                    0.67827311,
                    0.83913655,
                    0.12884156
                ],
                "xyz": [
                    1.4092705011672848,
                    3.9587059310721475,
                    1.1440718067513973
                ],
                "label": "O",
                "properties": {}
            },
            {
                "species": [
                    {
                        "element": "O",
                        "occu": 1
                    }
                ],
                "abc": [
                    0.83913655,
                    0.16086345,
                    0.62884156
                ],
                "xyz": [
                    4.132975054221114,
                    0.7588885189278525,
                    5.583911741751398
                ],
                "label": "O",
                "properties": {}
            },
            {
                "species": [
                    {
                        "element": "O",
                        "occu": 1
                    }
                ],
                "abc": [
                    0.49507455,
                    0.50492545,
                    0.37100408
                ],
                "xyz": [
                    1.321605469996515,
                    2.3820335005837525,
                    3.2943974608638698
                ],
                "label": "O",
                "properties": {}
            },
            {
                "species": [
                    {
                        "element": "O",
                        "occu": 1
                    }
                ],
                "abc": [
                    0.99015009,
                    0.49507455,
                    0.87100408
                ],
                "xyz": [
                    4.045315132905664,
                    2.3355609494162475,
                    7.73423739586387
                ],
                "label": "O",
                "properties": {}
            },
            {
                "species": [
                    {
                        "element": "O",
                        "occu": 1
                    }
                ],
                "abc": [
                    0.50492545,
                    0.00984991,
                    0.87100408
                ],
                "xyz": [
                    2.7237069564930176,
                    0.0464678807489995,
                    7.73423739586387
                ],
                "label": "O",
                "properties": {}
            },
            {
                "species": [
                    {
                        "element": "O",
                        "occu": 1
                    }
                ],
                "abc": [
                    0.49507455,
                    0.99015009,
                    0.37100408
                ],
                "xyz": [
                    -3.1964930178318696e-06,
                    4.671126569251,
                    3.2943974608638698
                ],
                "label": "O",
                "properties": {}
            },
            {
                "species": [
                    {
                        "element": "O",
                        "occu": 1
                    }
                ],
                "abc": [
                    0.00984991,
                    0.50492545,
                    0.37100408
                ],
                "xyz": [
                    -1.321611372905664,
                    2.3820335005837525,
                    3.2943974608638698
                ],
                "label": "O",
                "properties": {}
            },
            {
                "species": [
                    {
                        "element": "O",
                        "occu": 1
                    }
                ],
                "abc": [
                    0.50492545,
                    0.49507455,
                    0.87100408
                ],
                "xyz": [
                    1.4020982900034848,
                    2.3355609494162475,
                    7.73423739586387
                ],
                "label": "O",
                "properties": {}
            },
            {
                "species": [
                    {
                        "element": "O",
                        "occu": 1
                    }
                ],
                "abc": [
                    0.16086345,
                    0.83913655,
                    0.12884156
                ],
                "xyz": [
                    -1.409271294221115,
                    3.9587059310721475,
                    1.1440718067513973
                ],
                "label": "O",
                "properties": {}
            },
            {
                "species": [
                    {
                        "element": "O",
                        "occu": 1
                    }
                ],
                "abc": [
                    0.32172689,
                    0.16086345,
                    0.62884156
                ],
                "xyz": [
                    1.3144332588327152,
                    0.7588885189278525,
                    5.583911741751398
                ],
                "label": "O",
                "properties": {}
            }
        ]
    },
    "spacegroup": {
        "source": "spglib",
        "symbol": "P6_3mc",
        "number": 186,
        "point_group": "6mm",
        "crystal_system": "hexagonal",
        "hall": "P 6c -2c"
    },
    "dielectric": {
        "epsilon_ionic": [
            [
                7.23542881,
                9.9e-07,
                6.712e-05
            ],
            [
                9.9e-07,
                7.23533714,
                -1.5e-05
            ],
            [
                6.712e-05,
                -1.5e-05,
                7.27124933
            ]
        ],
        "epsilon_ionic_avg": 7.24733842666667,
        "epsilon_ionic_eig": [
            7.271249462031786,
            7.235428695552539,
            7.235337122415684
        ],
        "epsilon_electronic": [
            [
                3.29463666,
                3.5e-07,
                -0.0
            ],
            [
                3.5e-07,
                3.29463585,
                0.0
            ],
            [
                0.0,
                -0.0,
                3.28663263
            ]
        ],
        "epsilon_electronic_avg": 3.29196838,
        "epsilon_electronic_eig": [
            3.2946367902803004,
            3.2946357197197,
            3.28663263
        ]
    },
    "phonon": {
        "lowest_freq": -0.06342025961450508,
        "frequency": [
            -0.06342025961450508,
            -0.044877757004501494,
            -0.04487774973421386,
            2.9988208289387663,
            2.9988212486572694,
            3.5550520678358017,
            3.605256809406287,
            3.619825215759951,
            3.6198257626484875,
            3.678277400502196,
            3.6782779885331554,
            3.894861273110177,
            4.577793949096092,
            4.577794229384079,
            5.165067718290834,
            5.917061627351261,
            5.917062350176594,
            6.700839924151689,
            8.462511367674034,
            8.462512479566714,
            8.844754572211864,
            8.844755332097655,
            9.671440121360112,
            9.931296470503465,
            9.931297639434993,
            10.66017212435793,
            11.225730797294636,
            11.225731755237199,
            11.523111809713798,
            11.78933101284738,
            12.035166823105106,
            12.035167066791097,
            12.076115868328554,
            12.381853431936184,
            13.528018010157242,
            13.528018705706643,
            15.598773874677317,
            16.77387907168608,
            16.773880018754312,
            17.52854007850642,
            17.52854070594063,
            18.16193307277503,
            18.161935091283606,
            18.68821176818557,
            18.688212814407127,
            18.815971339187634,
            19.74581238821124,
            19.745813935375498,
            20.354835066273075,
            20.354836447075918,
            20.49525546383222,
            20.56431874059076,
            21.000193279081078,
            21.00019380279082,
            21.019964837970516,
            21.268982924725854,
            21.268984475999684,
            21.379954809056624,
            21.886590305041008,
            21.886593208372638,
            21.919502574283086,
            21.919504748512317,
            22.27692139777063,
            22.29093419994504,
            22.290936666868404,
            22.739994790153485,
            22.869234862275672,
            22.901499700588353,
            22.901500661049965,
            23.10612168665275,
            23.10612322035963,
            23.470136026692327,
            23.950111414409985,
            23.95011202668303,
            24.579679349170707,
            26.78852071925675,
            27.85762628455695,
            28.901838787336576
        ]
    },
    "born_effective_charge": {
        "avg_abs_trace": 2.028037564102564,
        "tensors": [
            [
                [
                    1.13585,
                    3e-05,
                    -1e-05
                ],
                [
                    0.0,
                    1.13587,
                    -1e-05
                ],
                [
                    0.0,
                    -0.0,
                    1.13655
                ]
            ],
            [
                [
                    1.13585,
                    -3e-05,
                    -1e-05
                ],
                [
                    0.0,
                    1.13587,
                    0.0
                ],
                [
                    0.0,
                    -0.0,
                    1.13655
                ]
            ],
            [
                [
                    1.76818,
                    0.13134,
                    0.15585
                ],
                [
                    0.13134,
                    1.91971,
                    -0.08994
                ],
                [
                    -0.23315,
                    0.13461,
                    1.95128
                ]
            ],
            [
                [
                    1.76818,
                    -0.13134,
                    0.15585
                ],
                [
                    -0.13131,
                    1.91978,
                    0.08996
                ],
                [
                    -0.23315,
                    -0.13461,
                    1.95128
                ]
            ],
            [
                [
                    1.99555,
                    1e-05,
                    0.0
                ],
                [
                    0.0,
                    1.69224,
                    -0.17997
                ],
                [
                    0.0,
                    0.26921,
                    1.95128
                ]
            ],
            [
                [
                    1.76802,
                    0.1313,
                    -0.15577
                ],
                [
                    0.13131,
                    1.91978,
                    0.08996
                ],
                [
                    0.23315,
                    -0.13461,
                    1.95128
                ]
            ],
            [
                [
                    1.95826,
                    2e-05,
                    2e-05
                ],
                [
                    0.0,
                    1.95825,
                    -2e-05
                ],
                [
                    0.0,
                    -0.0,
                    1.71874
                ]
            ],
            [
                [
                    1.95826,
                    -2e-05,
                    2e-05
                ],
                [
                    0.0,
                    1.95825,
                    -3e-05
                ],
                [
                    0.0,
                    -0.0,
                    1.71874
                ]
            ],
            [
                [
                    1.76802,
                    -0.1313,
                    -0.15577
                ],
                [
                    -0.13134,
                    1.91971,
                    -0.08994
                ],
                [
                    0.23315,
                    0.13461,
                    1.95128
                ]
            ],
            [
                [
                    1.99555,
                    -1e-05,
                    0.0
                ],
                [
                    0.0,
                    1.69229,
                    0.17994
                ],
                [
                    -0.0,
                    -0.26921,
                    1.95128
                ]
            ],
            [
                [
                    4.56871,
                    0.00021,
                    7e-05
                ],
                [
                    0.0,
                    4.56865,
                    3e-05
                ],
                [
                    0.0,
                    -0.0,
                    4.44848
                ]
            ],
            [
                [
                    4.56871,
                    -0.00021,
                    7e-05
                ],
                [
                    0.0,
                    4.56866,
                    -3e-05
                ],
                [
                    0.0,
                    -0.0,
                    4.44848
                ]
            ],
            [
                [
                    -1.28165,
                    -1e-05,
                    -1e-05
                ],
                [
                    -0.0,
                    -2.28416,
                    -0.17508
                ],
                [
                    -0.0,
                    -0.08868,
                    -2.15989
                ]
            ],
            [
                [
                    -1.80946,
                    -0.0,
                    -4e-05
                ],
                [
                    -0.0,
                    -1.80948,
                    2e-05
                ],
                [
                    0.0,
                    -0.0,
                    -1.88813
                ]
            ],
            [
                [
                    -1.80946,
                    0.0,
                    -4e-05
                ],
                [
                    -0.0,
                    -1.80947,
                    -5e-05
                ],
                [
                    0.0,
                    -0.0,
                    -1.88813
                ]
            ],
            [
                [
                    -1.28165,
                    1e-05,
                    -1e-05
                ],
                [
                    -0.0,
                    -2.28418,
                    0.1751
                ],
                [
                    0.0,
                    0.08868,
                    -2.15989
                ]
            ],
            [
                [
                    -2.03347,
                    -0.43418,
                    -0.1516
                ],
                [
                    -0.43421,
                    -1.53207,
                    -0.08754
                ],
                [
                    -0.0768,
                    -0.04434,
                    -2.15989
                ]
            ],
            [
                [
                    -2.03347,
                    0.43418,
                    -0.1516
                ],
                [
                    0.43422,
                    -1.53209,
                    0.08752
                ],
                [
                    -0.0768,
                    0.04434,
                    -2.15989
                ]
            ],
            [
                [
                    -2.02657,
                    0.02501,
                    -0.50356
                ],
                [
                    0.02506,
                    -1.99781,
                    0.29078
                ],
                [
                    -0.45138,
                    0.2606,
                    -1.59661
                ]
            ],
            [
                [
                    -2.02657,
                    -0.02501,
                    -0.50356
                ],
                [
                    -0.02504,
                    -1.99776,
                    -0.29076
                ],
                [
                    -0.45138,
                    -0.2606,
                    -1.59661
                ]
            ],
            [
                [
                    -1.98322,
                    9e-05,
                    -0.00013
                ],
                [
                    -0.0,
                    -2.04117,
                    0.5815
                ],
                [
                    0.0,
                    0.52121,
                    -1.59661
                ]
            ],
            [
                [
                    -1.98322,
                    -9e-05,
                    -0.00013
                ],
                [
                    -0.0,
                    -2.04115,
                    -0.58146
                ],
                [
                    -0.0,
                    -0.52121,
                    -1.59661
                ]
            ],
            [
                [
                    -2.02679,
                    -0.02503,
                    0.50361
                ],
                [
                    -0.02506,
                    -1.99781,
                    0.29078
                ],
                [
                    0.45138,
                    0.2606,
                    -1.59661
                ]
            ],
            [
                [
                    -2.02679,
                    0.02503,
                    0.50361
                ],
                [
                    0.02504,
                    -1.99776,
                    -0.29076
                ],
                [
                    0.45138,
                    -0.2606,
                    -1.59661
                ]
            ],
            [
                [
                    -2.03343,
                    0.43431,
                    0.15155
                ],
                [
                    0.43421,
                    -1.53207,
                    -0.08754
                ],
                [
                    0.0768,
                    -0.04434,
                    -2.15989
                ]
            ],
            [
                [
                    -2.03343,
                    -0.43431,
                    0.15155
                ],
                [
                    -0.43422,
                    -1.53209,
                    0.08752
                ],
                [
                    0.0768,
                    0.04434,
                    -2.15989
                ]
            ]
        ]
    },
    "band_gap": 3.5778,
    "is_direct": true,
    "formula": "NaBe4SbO7"
}