{
    "mp_id": "mp-996962",
    "nelements": 3,
    "nsites": 8,
    "elements": [
        "Ag",
        "Li",
        "O"
    ],
    "structure": {
        "@module": "pymatgen.core.structure",
        "@class": "Structure",
        "charge": null,
        "lattice": {
            "matrix": [
                [
                    4.78673862,
                    0.0,
                    -0.00161143
                ],
                [
                    0.0,
                    3.49867899,
                    0.0
                ],
                [
                    -0.95451782,
                    0.0,
                    5.1544313
                ]
            ],
            "a": 4.786738891239645,
            "b": 3.49867899,
            "c": 5.242066986897177,
            "alpha": 90.0,
            "beta": 100.51069552834554,
            "gamma": 90.0,
            "volume": 86.3172291661529
        },
        "sites": [
            {
                "species": [
                    {
                        "element": "Li",
                        "occu": 1
                    }
                ],
                "abc": [
                    0.5,
                    0.0,
                    0.5
                ],
                "xyz": [
                    1.9161104000000002,
                    0.0,
                    2.576409935
                ],
                "label": "Li",
                "properties": {}
            },
            {
                "species": [
                    {
                        "element": "Li",
                        "occu": 1
                    }
                ],
                "abc": [
                    0.5,
                    0.5,
                    0.0
                ],
                "xyz": [
                    2.39336931,
                    1.749339495,
                    -0.000805715
                ],
                "label": "Li",
                "properties": {}
            },
            {
                "species": [
                    {
                        "element": "Ag",
                        "occu": 1
                    }
                ],
                "abc": [
                    0.0,
                    0.0,
                    0.0
                ],
                "xyz": [
                    0.0,
                    0.0,
                    0.0
                ],
                "label": "Ag",
                "properties": {}
            },
            {
                "species": [
                    {
                        "element": "Ag",
                        "occu": 1
                    }
                ],
                "abc": [
                    0.0,
                    0.5,
                    0.5
                ],
                "xyz": [
                    -0.47725891,
                    1.749339495,
                    2.57721565
                ],
                "label": "Ag",
                "properties": {}
            },
            {
                "species": [
                    {
                        "element": "O",
                        "occu": 1
                    }
                ],
                "abc": [
                    0.75683054,
                    0.66495116,
                    0.74679494
                ],
                "xyz": [
                    2.9099208964976246,
                    2.3264506528681284,
                    3.8480836339805493
                ],
                "label": "O",
                "properties": {}
            },
            {
                "species": [
                    {
                        "element": "O",
                        "occu": 1
                    }
                ],
                "abc": [
                    0.24316946,
                    0.33504884,
                    0.25320506
                ],
                "xyz": [
                    0.9222999035023762,
                    1.1722283371318718,
                    1.3047362360194499
                ],
                "label": "O",
                "properties": {}
            },
            {
                "species": [
                    {
                        "element": "O",
                        "occu": 1
                    }
                ],
                "abc": [
                    0.75683054,
                    0.83504884,
                    0.24679494
                ],
                "xyz": [
                    3.387179806497625,
                    2.921567832131872,
                    1.2708679839805497
                ],
                "label": "O",
                "properties": {}
            },
            {
                "species": [
                    {
                        "element": "O",
                        "occu": 1
                    }
                ],
                "abc": [
                    0.24316946,
                    0.16495116,
                    0.75320506
                ],
                "xyz": [
                    0.44504099350237614,
                    0.5771111578681285,
                    3.88195188601945
                ],
                "label": "O",
                "properties": {}
            }
        ]
    },
    "spacegroup": {
        "source": "spglib",
        "symbol": "P2_1/c",
        "number": 14,
        "point_group": "2/m",
        "crystal_system": "monoclinic",
        "hall": "-P 2ybc"
    },
    "dielectric": {
        "epsilon_ionic": [
            [
                4.59362744,
                -4e-08,
                -0.28950862
            ],
            [
                -4e-08,
                6.26373755,
                -1.5e-07
            ],
            [
                -0.28950862,
                -1.5e-07,
                5.94586053
            ]
        ],
        "epsilon_ionic_avg": 5.601075173333332,
        "epsilon_ionic_eig": [
            4.5342517529016275,
            6.005236217098294,
            6.263737550000076
        ],
        "epsilon_electronic": [
            [
                5.29359224,
                0.0,
                -1.00081434
            ],
            [
                0.0,
                6.88286822,
                0.0
            ],
            [
                -1.00081457,
                0.0,
                9.28073285
            ]
        ],
        "epsilon_electronic_avg": 7.15239777,
        "epsilon_electronic_eig": [
            5.056478314922886,
            9.517846775077114,
            6.88286822
        ]
    },
    "phonon": {
        "lowest_freq": -0.058383294396412315,
        "frequency": [
            -0.058383294396412315,
            -0.026590379601100732,
            -0.02171230668470474,
            4.44419121098227,
            4.655714809615599,
            5.631286771210948,
            6.340349590383778,
            6.588744811512923,
            7.516187838583321,
            7.709116036149273,
            9.00219988854184,
            9.283241361759375,
            10.388934448942553,
            10.829352954999024,
            11.81075569172347,
            13.641631884149872,
            13.853820277653854,
            13.952419262387124,
            15.005554404880876,
            15.56833103035459,
            15.854324983599424,
            16.87313887039051,
            17.128105439459137,
            17.14070535600611
        ]
    },
    "born_effective_charge": {
        "avg_abs_trace": 1.6312291666666667,
        "tensors": [
            [
                [
                    1.69514,
                    -0.23105,
                    -0.05896
                ],
                [
                    0.08527,
                    0.96491,
                    0.15247
                ],
                [
                    -0.10214,
                    0.20294,
                    1.0987
                ]
            ],
            [
                [
                    1.69514,
                    0.23105,
                    -0.05896
                ],
                [
                    -0.08527,
                    0.96491,
                    -0.15247
                ],
                [
                    -0.10214,
                    -0.20294,
                    1.0987
                ]
            ],
            [
                [
                    0.88087,
                    0.36201,
                    -0.40037
                ],
                [
                    1.53436,
                    2.23641,
                    0.04242
                ],
                [
                    -0.09571,
                    0.58302,
                    2.91135
                ]
            ],
            [
                [
                    0.88087,
                    -0.36201,
                    -0.40037
                ],
                [
                    -1.53436,
                    2.23641,
                    -0.04242
                ],
                [
                    -0.09571,
                    -0.58302,
                    2.91135
                ]
            ],
            [
                [
                    -1.28795,
                    -0.01343,
                    0.22994
                ],
                [
                    0.12737,
                    -1.60066,
                    -0.93823
                ],
                [
                    0.09888,
                    -0.74376,
                    -2.005
                ]
            ],
            [
                [
                    -1.28806,
                    -0.01393,
                    0.22939
                ],
                [
                    0.12745,
                    -1.60066,
                    -0.9374
                ],
                [
                    0.09896,
                    -0.7432,
                    -2.00504
                ]
            ],
            [
                [
                    -1.28795,
                    0.01343,
                    0.22994
                ],
                [
                    -0.12745,
                    -1.60066,
                    0.9374
                ],
                [
                    0.09888,
                    0.74376,
                    -2.005
                ]
            ],
            [
                [
                    -1.28806,
                    0.01393,
                    0.22939
                ],
                [
                    -0.12737,
                    -1.60066,
                    0.93823
                ],
                [
                    0.09896,
                    0.7432,
                    -2.00504
                ]
            ]
        ]
    },
    "band_gap": 0.7608999999999999,
    "is_direct": false,
    "formula": "LiAgO2"
}