{
    "mp_id": "mp-9059",
    "nelements": 4,
    "nsites": 14,
    "elements": [
        "K",
        "Li",
        "O",
        "Ta"
    ],
    "structure": {
        "@module": "pymatgen.core.structure",
        "@class": "Structure",
        "charge": null,
        "lattice": {
            "matrix": [
                [
                    4.11632566,
                    2.37656151,
                    2.40568652
                ],
                [
                    -4.11632566,
                    2.37656151,
                    2.40568652
                ],
                [
                    0.0,
                    -4.75312303,
                    2.40568652
                ]
            ],
            "a": 5.327242174192725,
            "b": 5.327242174192725,
            "c": 5.327241891525679,
            "alpha": 101.19276861430355,
            "beta": 101.19276861430355,
            "gamma": 101.19277435766568,
            "volume": 141.2046735687115
        },
        "sites": [
            {
                "species": [
                    {
                        "element": "K",
                        "occu": 1
                    }
                ],
                "abc": [
                    0.5,
                    0.5,
                    0.5
                ],
                "xyz": [
                    0.0,
                    -4.999999969612645e-09,
                    3.6085297800000005
                ],
                "label": "K",
                "properties": {}
            },
            {
                "species": [
                    {
                        "element": "Li",
                        "occu": 1
                    }
                ],
                "abc": [
                    0.34401402,
                    0.0,
                    0.65598598
                ],
                "xyz": [
                    1.416073737925753,
                    -2.3004115900627493,
                    2.40568652
                ],
                "label": "Li",
                "properties": {}
            },
            {
                "species": [
                    {
                        "element": "Li",
                        "occu": 1
                    }
                ],
                "abc": [
                    0.0,
                    0.65598598,
                    0.34401402
                ],
                "xyz": [
                    -2.700251922074247,
                    -0.07614992993725078,
                    2.40568652
                ],
                "label": "Li",
                "properties": {}
            },
            {
                "species": [
                    {
                        "element": "Li",
                        "occu": 1
                    }
                ],
                "abc": [
                    0.34401402,
                    0.65598598,
                    0.0
                ],
                "xyz": [
                    -1.2841781841484938,
                    2.37656151,
                    2.40568652
                ],
                "label": "Li",
                "properties": {}
            },
            {
                "species": [
                    {
                        "element": "Li",
                        "occu": 1
                    }
                ],
                "abc": [
                    0.0,
                    0.34401402,
                    0.65598598
                ],
                "xyz": [
                    -1.416073737925753,
                    -2.3004115900627493,
                    2.40568652
                ],
                "label": "Li",
                "properties": {}
            },
            {
                "species": [
                    {
                        "element": "Li",
                        "occu": 1
                    }
                ],
                "abc": [
                    0.65598598,
                    0.0,
                    0.34401402
                ],
                "xyz": [
                    2.700251922074247,
                    -0.07614992993725078,
                    2.40568652
                ],
                "label": "Li",
                "properties": {}
            },
            {
                "species": [
                    {
                        "element": "Li",
                        "occu": 1
                    }
                ],
                "abc": [
                    0.65598598,
                    0.34401402,
                    0.0
                ],
                "xyz": [
                    1.2841781841484938,
                    2.37656151,
                    2.40568652
                ],
                "label": "Li",
                "properties": {}
            },
            {
                "species": [
                    {
                        "element": "Ta",
                        "occu": 1
                    }
                ],
                "abc": [
                    0.0,
                    0.0,
                    0.0
                ],
                "xyz": [
                    0.0,
                    0.0,
                    0.0
                ],
                "label": "Ta",
                "properties": {}
            },
            {
                "species": [
                    {
                        "element": "O",
                        "occu": 1
                    }
                ],
                "abc": [
                    0.27224316,
                    0.91570894,
                    0.27224316
                ],
                "xyz": [
                    -2.648714701545915,
                    1.5292360030276964,
                    3.512772053549896
                ],
                "label": "O",
                "properties": {}
            },
            {
                "species": [
                    {
                        "element": "O",
                        "occu": 1
                    }
                ],
                "abc": [
                    0.27224316,
                    0.27224316,
                    0.91570894
                ],
                "xyz": [
                    0.0,
                    -3.0584720206573457,
                    3.5127720535498956
                ],
                "label": "O",
                "properties": {}
            },
            {
                "species": [
                    {
                        "element": "O",
                        "occu": 1
                    }
                ],
                "abc": [
                    0.72775684,
                    0.08429106,
                    0.72775684
                ],
                "xyz": [
                    2.648714701545915,
                    -1.5292360130276965,
                    3.704287506450105
                ],
                "label": "O",
                "properties": {}
            },
            {
                "species": [
                    {
                        "element": "O",
                        "occu": 1
                    }
                ],
                "abc": [
                    0.72775684,
                    0.72775684,
                    0.08429106
                ],
                "xyz": [
                    0.0,
                    3.058472010657345,
                    3.704287506450105
                ],
                "label": "O",
                "properties": {}
            },
            {
                "species": [
                    {
                        "element": "O",
                        "occu": 1
                    }
                ],
                "abc": [
                    0.08429106,
                    0.72775684,
                    0.72775684
                ],
                "xyz": [
                    -2.648714701545915,
                    -1.5292360130276965,
                    3.704287506450105
                ],
                "label": "O",
                "properties": {}
            },
            {
                "species": [
                    {
                        "element": "O",
                        "occu": 1
                    }
                ],
                "abc": [
                    0.91570894,
                    0.27224316,
                    0.27224316
                ],
                "xyz": [
                    2.648714701545915,
                    1.5292360030276964,
                    3.512772053549896
                ],
                "label": "O",
                "properties": {}
            }
        ]
    },
    "spacegroup": {
        "source": "spglib",
        "symbol": "R-3m",
        "number": 166,
        "point_group": "-3m",
        "crystal_system": "trigonal",
        "hall": "-R 3 2\""
    },
    "dielectric": {
        "epsilon_ionic": [
            [
                7.45763852,
                0.0,
                -0.0
            ],
            [
                0.0,
                7.45739491,
                4.081e-05
            ],
            [
                -0.0,
                4.081e-05,
                7.03404929
            ]
        ],
        "epsilon_ionic_avg": 7.316360906666667,
        "epsilon_ionic_eig": [
            7.034049286065965,
            7.457394913934034,
            7.45763852
        ],
        "epsilon_electronic": [
            [
                3.36912855,
                0.0,
                -0.0
            ],
            [
                0.0,
                3.36912782,
                4.5e-07
            ],
            [
                -0.0,
                4.5e-07,
                3.25991131
            ]
        ],
        "epsilon_electronic_avg": 3.3327225600000006,
        "epsilon_electronic_eig": [
            3.259911309998146,
            3.369127820001854,
            3.36912855
        ]
    },
    "phonon": {
        "lowest_freq": -0.03291008006416207,
        "frequency": [
            -0.03291008006416207,
            -0.03291007649953782,
            -0.02104228912296516,
            2.9922402052102566,
            3.4084313218133095,
            3.4084316875066403,
            3.912115550988842,
            7.106122058544523,
            7.691658047458569,
            7.691658603515808,
            9.038131913124428,
            9.038132818997905,
            9.96305694047798,
            9.963057737723643,
            10.565694599285743,
            11.129842550701902,
            11.454685860611473,
            11.454686073974049,
            11.595741764341456,
            11.595741911878452,
            11.807951134619358,
            12.245303950757256,
            12.66906652361365,
            13.304370728320025,
            13.519238221698828,
            13.519238474790145,
            13.557710595672555,
            14.858403451069213,
            14.85840448733181,
            15.38251946665946,
            15.743602140687136,
            15.743602606400367,
            15.93934680490936,
            15.939348031559986,
            16.374625819565363,
            16.570106562899383,
            16.57010811159266,
            17.50096363656462,
            17.500964683936047,
            18.2215828406589,
            18.221583041848994,
            21.02482728821934
        ]
    },
    "born_effective_charge": {
        "avg_abs_trace": 1.7864202380952379,
        "tensors": [
            [
                [
                    1.21087,
                    -0.0,
                    0.0
                ],
                [
                    -0.0,
                    1.21084,
                    2e-05
                ],
                [
                    -0.0,
                    0.0,
                    1.40497
                ]
            ],
            [
                [
                    0.9007,
                    0.13975,
                    0.23914
                ],
                [
                    0.13976,
                    1.06206,
                    -0.13806
                ],
                [
                    0.13648,
                    -0.07881,
                    0.95995
                ]
            ],
            [
                [
                    0.9007,
                    -0.13975,
                    -0.23914
                ],
                [
                    -0.13974,
                    1.06203,
                    -0.13807
                ],
                [
                    -0.13649,
                    -0.07879,
                    0.95995
                ]
            ],
            [
                [
                    1.14277,
                    -0.0,
                    0.0
                ],
                [
                    -3e-05,
                    0.81999,
                    0.27612
                ],
                [
                    -1e-05,
                    0.1576,
                    0.95995
                ]
            ],
            [
                [
                    0.9007,
                    -0.13975,
                    -0.23913
                ],
                [
                    -0.13976,
                    1.06206,
                    -0.13806
                ],
                [
                    -0.13648,
                    -0.07881,
                    0.95995
                ]
            ],
            [
                [
                    0.9007,
                    0.13975,
                    0.23913
                ],
                [
                    0.13974,
                    1.06203,
                    -0.13807
                ],
                [
                    0.13649,
                    -0.07879,
                    0.95995
                ]
            ],
            [
                [
                    1.14273,
                    -0.0,
                    0.0
                ],
                [
                    3e-05,
                    0.81999,
                    0.27612
                ],
                [
                    1e-05,
                    0.1576,
                    0.95995
                ]
            ],
            [
                [
                    5.58207,
                    -0.0,
                    0.0
                ],
                [
                    -0.0,
                    5.58207,
                    -0.0
                ],
                [
                    -0.0,
                    0.0,
                    4.98784
                ]
            ],
            [
                [
                    -2.37986,
                    0.46126,
                    -0.71917
                ],
                [
                    0.46125,
                    -1.84722,
                    0.4153
                ],
                [
                    -0.75877,
                    0.43808,
                    -2.02544
                ]
            ],
            [
                [
                    -1.58089,
                    4e-05,
                    7e-05
                ],
                [
                    -0.0,
                    -2.64613,
                    -0.83049
                ],
                [
                    -0.0,
                    -0.87615,
                    -2.02544
                ]
            ],
            [
                [
                    -2.37987,
                    0.46129,
                    -0.71921
                ],
                [
                    0.46131,
                    -1.84716,
                    0.4152
                ],
                [
                    -0.75878,
                    0.43808,
                    -2.0254
                ]
            ],
            [
                [
                    -1.58089,
                    -4e-05,
                    -7e-05
                ],
                [
                    -0.0,
                    -2.64618,
                    -0.83054
                ],
                [
                    -0.0,
                    -0.87617,
                    -2.0254
                ]
            ],
            [
                [
                    -2.37986,
                    -0.46126,
                    0.71917
                ],
                [
                    -0.46131,
                    -1.84716,
                    0.4152
                ],
                [
                    0.75878,
                    0.43808,
                    -2.0254
                ]
            ],
            [
                [
                    -2.37987,
                    -0.46129,
                    0.71921
                ],
                [
                    -0.46125,
                    -1.84722,
                    0.4153
                ],
                [
                    0.75877,
                    0.43808,
                    -2.02544
                ]
            ]
        ]
    },
    "band_gap": 4.7197,
    "is_direct": false,
    "formula": "KLi6TaO6"
}