{
    "mp_id": "mp-997088",
    "nelements": 3,
    "nsites": 8,
    "elements": [
        "Ag",
        "K",
        "O"
    ],
    "structure": {
        "@module": "pymatgen.core.structure",
        "@class": "Structure",
        "charge": null,
        "lattice": {
            "matrix": [
                [
                    2.16225343,
                    -6.02169036,
                    0.0
                ],
                [
                    2.16225343,
                    6.02169036,
                    0.0
                ],
                [
                    0.0,
                    0.0,
                    5.8302424
                ]
            ],
            "a": 6.39813212486767,
            "b": 6.39813212486767,
            "c": 5.8302424,
            "alpha": 90.0,
            "beta": 90.0,
            "gamma": 140.49585874266614,
            "volume": 151.8244169076145
        },
        "sites": [
            {
                "species": [
                    {
                        "element": "K",
                        "occu": 1
                    }
                ],
                "abc": [
                    0.29556314,
                    0.70443686,
                    0.75
                ],
                "xyz": [
                    2.16225343,
                    2.4621109381813397,
                    4.3726818000000005
                ],
                "label": "K",
                "properties": {}
            },
            {
                "species": [
                    {
                        "element": "K",
                        "occu": 1
                    }
                ],
                "abc": [
                    0.70443686,
                    0.29556314,
                    0.25
                ],
                "xyz": [
                    2.16225343,
                    -2.4621109381813397,
                    1.4575606
                ],
                "label": "K",
                "properties": {}
            },
            {
                "species": [
                    {
                        "element": "Ag",
                        "occu": 1
                    }
                ],
                "abc": [
                    0.00296441,
                    0.99703559,
                    0.75
                ],
                "xyz": [
                    2.16225343,
                    5.985988841759824,
                    4.3726818000000005
                ],
                "label": "Ag",
                "properties": {}
            },
            {
                "species": [
                    {
                        "element": "Ag",
                        "occu": 1
                    }
                ],
                "abc": [
                    0.99703559,
                    0.00296441,
                    0.25
                ],
                "xyz": [
                    2.16225343,
                    -5.985988841759824,
                    1.4575606
                ],
                "label": "Ag",
                "properties": {}
            },
            {
                "species": [
                    {
                        "element": "O",
                        "occu": 1
                    }
                ],
                "abc": [
                    0.11040717,
                    0.88959283,
                    0.00608248
                ],
                "xyz": [
                    2.16225343,
                    4.692014777472237,
                    0.035462332793152
                ],
                "label": "O",
                "properties": {}
            },
            {
                "species": [
                    {
                        "element": "O",
                        "occu": 1
                    }
                ],
                "abc": [
                    0.88959283,
                    0.11040717,
                    0.50608248
                ],
                "xyz": [
                    2.16225343,
                    -4.692014777472237,
                    2.950583532793152
                ],
                "label": "O",
                "properties": {}
            },
            {
                "species": [
                    {
                        "element": "O",
                        "occu": 1
                    }
                ],
                "abc": [
                    0.11040717,
                    0.88959283,
                    0.49391752
                ],
                "xyz": [
                    2.16225343,
                    4.692014777472237,
                    2.879658867206848
                ],
                "label": "O",
                "properties": {}
            },
            {
                "species": [
                    {
                        "element": "O",
                        "occu": 1
                    }
                ],
                "abc": [
                    0.88959283,
                    0.11040717,
                    0.99391752
                ],
                "xyz": [
                    2.16225343,
                    -4.692014777472237,
                    5.794780067206848
                ],
                "label": "O",
                "properties": {}
            }
        ]
    },
    "spacegroup": {
        "source": "spglib",
        "symbol": "Cmcm",
        "number": 63,
        "point_group": "mmm",
        "crystal_system": "orthorhombic",
        "hall": "-C 2c 2"
    },
    "dielectric": {
        "epsilon_ionic": [
            [
                1.90730942,
                1e-08,
                0.0
            ],
            [
                1e-08,
                1.98207971,
                3e-08
            ],
            [
                0.0,
                3e-08,
                4.19033411
            ]
        ],
        "epsilon_ionic_avg": 2.69324108,
        "epsilon_ionic_eig": [
            1.907309419999999,
            1.9820797100000014,
            4.19033411
        ],
        "epsilon_electronic": [
            [
                2.33197643,
                0.0,
                0.0
            ],
            [
                0.0,
                3.17418184,
                0.0
            ],
            [
                0.0,
                0.0,
                6.32980472
            ]
        ],
        "epsilon_electronic_avg": 3.9453209966666667,
        "epsilon_electronic_eig": [
            2.33197643,
            3.17418184,
            6.32980472
        ]
    },
    "phonon": {
        "lowest_freq": -0.026115464166708104,
        "frequency": [
            -0.026115464166708104,
            -0.017001131397143193,
            -0.007708117778922289,
            2.6323987987360717,
            2.9931084754200423,
            3.491594639090802,
            3.6682555563392536,
            3.8630094005447284,
            4.125065818262516,
            4.366914987172552,
            4.64581248052746,
            5.084347165333901,
            5.759339265016329,
            7.20160232447888,
            8.252664857428261,
            8.341110813953,
            13.209083281001682,
            14.319306628686258,
            15.735948301220562,
            16.148101981631424,
            16.192896708995367,
            16.35516276654641,
            16.939536791741197,
            17.86532486896623
        ]
    },
    "born_effective_charge": {
        "avg_abs_trace": 1.6333029166666666,
        "tensors": [
            [
                [
                    1.13508,
                    -4e-05,
                    0.0
                ],
                [
                    0.0,
                    1.51262,
                    0.0
                ],
                [
                    -0.0,
                    0.00023,
                    1.02814
                ]
            ],
            [
                [
                    1.13508,
                    4e-05,
                    0.0
                ],
                [
                    0.0,
                    1.51265,
                    0.0
                ],
                [
                    0.0,
                    -0.00023,
                    1.02814
                ]
            ],
            [
                [
                    0.29452,
                    -2e-05,
                    0.0
                ],
                [
                    0.0,
                    0.97886,
                    0.0
                ],
                [
                    0.0,
                    0.00043,
                    4.85038
                ]
            ],
            [
                [
                    0.29452,
                    2e-05,
                    0.0
                ],
                [
                    0.0,
                    0.97926,
                    0.0
                ],
                [
                    -0.0,
                    -0.00043,
                    4.85038
                ]
            ],
            [
                [
                    -0.7148,
                    -3e-05,
                    8e-05
                ],
                [
                    0.0,
                    -1.24643,
                    0.02185
                ],
                [
                    -0.0,
                    -0.06125,
                    -2.93902
                ]
            ],
            [
                [
                    -0.7148,
                    3e-05,
                    8e-05
                ],
                [
                    0.0,
                    -1.24527,
                    -0.02196
                ],
                [
                    0.0,
                    0.06125,
                    -2.93902
                ]
            ],
            [
                [
                    -0.7148,
                    -3e-05,
                    -8e-05
                ],
                [
                    0.0,
                    -1.24643,
                    -0.02185
                ],
                [
                    0.0,
                    0.06066,
                    -2.9395
                ]
            ],
            [
                [
                    -0.7148,
                    3e-05,
                    -8e-05
                ],
                [
                    0.0,
                    -1.24527,
                    0.02196
                ],
                [
                    -0.0,
                    -0.06066,
                    -2.9395
                ]
            ]
        ]
    },
    "band_gap": 1.3144,
    "is_direct": false,
    "formula": "KAgO2"
}