{
    "mp_id": "mp-9650",
    "nelements": 3,
    "nsites": 18,
    "elements": [
        "Mg",
        "O",
        "Ta"
    ],
    "structure": {
        "@module": "pymatgen.core.structure",
        "@class": "Structure",
        "charge": null,
        "lattice": {
            "matrix": [
                [
                    4.73195068,
                    0.0,
                    0.0
                ],
                [
                    0.0,
                    4.73195068,
                    0.0
                ],
                [
                    0.0,
                    0.0,
                    9.23763113
                ]
            ],
            "a": 4.73195068,
            "b": 4.73195068,
            "c": 9.23763113,
            "alpha": 90.0,
            "beta": 90.0,
            "gamma": 90.0,
            "volume": 206.84309866426045
        },
        "sites": [
            {
                "species": [
                    {
                        "element": "Mg",
                        "occu": 1
                    }
                ],
                "abc": [
                    0.0,
                    0.0,
                    0.0
                ],
                "xyz": [
                    0.0,
                    0.0,
                    0.0
                ],
                "label": "Mg",
                "properties": {}
            },
            {
                "species": [
                    {
                        "element": "Mg",
                        "occu": 1
                    }
                ],
                "abc": [
                    0.5,
                    0.5,
                    0.5
                ],
                "xyz": [
                    2.36597534,
                    2.36597534,
                    4.618815565
                ],
                "label": "Mg",
                "properties": {}
            },
            {
                "species": [
                    {
                        "element": "Ta",
                        "occu": 1
                    }
                ],
                "abc": [
                    0.5,
                    0.5,
                    0.83223167
                ],
                "xyz": [
                    2.36597534,
                    2.36597534,
                    7.6878491821638875
                ],
                "label": "Ta",
                "properties": {}
            },
            {
                "species": [
                    {
                        "element": "Ta",
                        "occu": 1
                    }
                ],
                "abc": [
                    0.0,
                    0.0,
                    0.33223167
                ],
                "xyz": [
                    0.0,
                    0.0,
                    3.0690336171638872
                ],
                "label": "Ta",
                "properties": {}
            },
            {
                "species": [
                    {
                        "element": "Ta",
                        "occu": 1
                    }
                ],
                "abc": [
                    0.5,
                    0.5,
                    0.16776833
                ],
                "xyz": [
                    2.36597534,
                    2.36597534,
                    1.549781947836113
                ],
                "label": "Ta",
                "properties": {}
            },
            {
                "species": [
                    {
                        "element": "Ta",
                        "occu": 1
                    }
                ],
                "abc": [
                    0.0,
                    0.0,
                    0.66776833
                ],
                "xyz": [
                    0.0,
                    0.0,
                    6.168597512836113
                ],
                "label": "Ta",
                "properties": {}
            },
            {
                "species": [
                    {
                        "element": "O",
                        "occu": 1
                    }
                ],
                "abc": [
                    0.70142601,
                    0.70142601,
                    0.67438967
                ],
                "xyz": [
                    3.3191132849891867,
                    3.3191132849891867,
                    6.229763009342428
                ],
                "label": "O",
                "properties": {}
            },
            {
                "species": [
                    {
                        "element": "O",
                        "occu": 1
                    }
                ],
                "abc": [
                    0.29857399,
                    0.29857399,
                    0.67438967
                ],
                "xyz": [
                    1.412837395010813,
                    1.412837395010813,
                    6.229763009342428
                ],
                "label": "O",
                "properties": {}
            },
            {
                "species": [
                    {
                        "element": "O",
                        "occu": 1
                    }
                ],
                "abc": [
                    0.70142601,
                    0.70142601,
                    0.32561033
                ],
                "xyz": [
                    3.3191132849891867,
                    3.3191132849891867,
                    3.007868120657573
                ],
                "label": "O",
                "properties": {}
            },
            {
                "species": [
                    {
                        "element": "O",
                        "occu": 1
                    }
                ],
                "abc": [
                    0.20142601,
                    0.79857399,
                    0.17438967
                ],
                "xyz": [
                    0.9531379449891867,
                    3.778812735010813,
                    1.6109474443424272
                ],
                "label": "O",
                "properties": {}
            },
            {
                "species": [
                    {
                        "element": "O",
                        "occu": 1
                    }
                ],
                "abc": [
                    0.79857399,
                    0.20142601,
                    0.17438967
                ],
                "xyz": [
                    3.778812735010813,
                    0.9531379449891867,
                    1.6109474443424272
                ],
                "label": "O",
                "properties": {}
            },
            {
                "species": [
                    {
                        "element": "O",
                        "occu": 1
                    }
                ],
                "abc": [
                    0.79857399,
                    0.20142601,
                    0.82561033
                ],
                "xyz": [
                    3.778812735010813,
                    0.9531379449891867,
                    7.626683685657572
                ],
                "label": "O",
                "properties": {}
            },
            {
                "species": [
                    {
                        "element": "O",
                        "occu": 1
                    }
                ],
                "abc": [
                    0.30972869,
                    0.30972869,
                    0.0
                ],
                "xyz": [
                    1.465620885261009,
                    1.465620885261009,
                    0.0
                ],
                "label": "O",
                "properties": {}
            },
            {
                "species": [
                    {
                        "element": "O",
                        "occu": 1
                    }
                ],
                "abc": [
                    0.19027131,
                    0.80972869,
                    0.5
                ],
                "xyz": [
                    0.9003544547389908,
                    3.831596225261009,
                    4.618815565
                ],
                "label": "O",
                "properties": {}
            },
            {
                "species": [
                    {
                        "element": "O",
                        "occu": 1
                    }
                ],
                "abc": [
                    0.80972869,
                    0.19027131,
                    0.5
                ],
                "xyz": [
                    3.831596225261009,
                    0.9003544547389908,
                    4.618815565
                ],
                "label": "O",
                "properties": {}
            },
            {
                "species": [
                    {
                        "element": "O",
                        "occu": 1
                    }
                ],
                "abc": [
                    0.69027131,
                    0.69027131,
                    0.0
                ],
                "xyz": [
                    3.2663297947389904,
                    3.2663297947389904,
                    0.0
                ],
                "label": "O",
                "properties": {}
            },
            {
                "species": [
                    {
                        "element": "O",
                        "occu": 1
                    }
                ],
                "abc": [
                    0.29857399,
                    0.29857399,
                    0.32561033
                ],
                "xyz": [
                    1.412837395010813,
                    1.412837395010813,
                    3.007868120657573
                ],
                "label": "O",
                "properties": {}
            },
            {
                "species": [
                    {
                        "element": "O",
                        "occu": 1
                    }
                ],
                "abc": [
                    0.20142601,
                    0.79857399,
                    0.82561033
                ],
                "xyz": [
                    0.9531379449891867,
                    3.778812735010813,
                    7.626683685657572
                ],
                "label": "O",
                "properties": {}
            }
        ]
    },
    "spacegroup": {
        "source": "spglib",
        "symbol": "P4_2/mnm",
        "number": 136,
        "point_group": "4/mmm",
        "crystal_system": "tetragonal",
        "hall": "-P 4n 2n"
    },
    "dielectric": {
        "epsilon_ionic": [
            [
                16.09009234,
                3e-08,
                -0.0
            ],
            [
                3e-08,
                16.09009123,
                -0.0
            ],
            [
                -0.0,
                -0.0,
                17.2860847
            ]
        ],
        "epsilon_ionic_avg": 16.48875609,
        "epsilon_ionic_eig": [
            16.09009234081022,
            16.09009122918978,
            17.2860847
        ],
        "epsilon_electronic": [
            [
                4.63943745,
                0.0,
                0.0
            ],
            [
                0.0,
                4.63943745,
                0.0
            ],
            [
                0.0,
                0.0,
                5.10160895
            ]
        ],
        "epsilon_electronic_avg": 4.793494616666667,
        "epsilon_electronic_eig": [
            4.63943745,
            4.63943745,
            5.10160895
        ]
    },
    "phonon": {
        "lowest_freq": -0.04049790990267883,
        "frequency": [
            -0.04049790990267883,
            -0.04049790990267883,
            -0.015144358734493834,
            2.0823430920272257,
            2.0823430920272257,
            3.936823853948049,
            4.078300069487518,
            4.527855775139143,
            4.527855775139143,
            5.569458810371219,
            5.569458810371219,
            5.987202681860023,
            6.272555861183944,
            7.07005229431656,
            7.544597482924491,
            7.544597482924491,
            7.58957803513556,
            7.984313042509538,
            7.984313042509538,
            8.22670054056586,
            8.22670054056586,
            9.041034798631163,
            9.041034798631163,
            9.563318701451204,
            9.563318701451204,
            9.849716945601696,
            10.086373317180062,
            10.723658145379169,
            11.179129493922122,
            11.739078668987892,
            12.538684640455731,
            12.635298666682356,
            12.635298666682356,
            13.399301384062628,
            13.399301384062628,
            13.491633733439912,
            13.78029729404225,
            13.78029729404225,
            14.203715877058995,
            15.88207893908194,
            16.29454425309121,
            16.29454425309121,
            16.44828552119884,
            16.880605606523996,
            16.880605606523996,
            17.068409841561156,
            17.068409841561156,
            18.753267416276042,
            19.068139680478367,
            20.441502041886675,
            20.728719448029153,
            21.32293175667655,
            24.768118920509792,
            25.65796129402124
        ]
    },
    "born_effective_charge": {
        "avg_abs_trace": 3.5780451851851853,
        "tensors": [
            [
                [
                    2.28749,
                    0.23454,
                    -0.0
                ],
                [
                    0.23454,
                    2.28749,
                    -0.0
                ],
                [
                    0.0,
                    0.0,
                    2.45533
                ]
            ],
            [
                [
                    2.28749,
                    -0.23454,
                    -0.0
                ],
                [
                    -0.23454,
                    2.28749,
                    -0.0
                ],
                [
                    0.0,
                    0.0,
                    2.45533
                ]
            ],
            [
                [
                    6.57448,
                    -0.75038,
                    -0.00027
                ],
                [
                    -0.75038,
                    6.57448,
                    -0.00027
                ],
                [
                    0.0,
                    0.0,
                    7.48776
                ]
            ],
            [
                [
                    6.57448,
                    0.75038,
                    -0.00027
                ],
                [
                    0.75038,
                    6.57448,
                    -0.00027
                ],
                [
                    0.0,
                    0.0,
                    7.48776
                ]
            ],
            [
                [
                    6.57448,
                    -0.75038,
                    0.00027
                ],
                [
                    -0.75038,
                    6.57448,
                    0.00027
                ],
                [
                    0.0,
                    0.0,
                    7.48761
                ]
            ],
            [
                [
                    6.57448,
                    0.75038,
                    0.00027
                ],
                [
                    0.75038,
                    6.57448,
                    0.00027
                ],
                [
                    0.0,
                    0.0,
                    7.48761
                ]
            ],
            [
                [
                    -2.96557,
                    -1.6548,
                    0.89793
                ],
                [
                    -1.6548,
                    -2.96557,
                    0.89793
                ],
                [
                    0.78954,
                    0.78954,
                    -2.37194
                ]
            ],
            [
                [
                    -2.96539,
                    -1.65465,
                    -0.89745
                ],
                [
                    -1.65465,
                    -2.96539,
                    -0.89745
                ],
                [
                    -0.78954,
                    -0.78954,
                    -2.37194
                ]
            ],
            [
                [
                    -2.96557,
                    -1.6548,
                    -0.89793
                ],
                [
                    -1.6548,
                    -2.96557,
                    -0.89793
                ],
                [
                    -0.78981,
                    -0.78981,
                    -2.37183
                ]
            ],
            [
                [
                    -2.96557,
                    1.6548,
                    0.89793
                ],
                [
                    1.65465,
                    -2.96539,
                    -0.89745
                ],
                [
                    0.78954,
                    -0.78954,
                    -2.37194
                ]
            ],
            [
                [
                    -2.96539,
                    1.65465,
                    -0.89745
                ],
                [
                    1.6548,
                    -2.96557,
                    0.89793
                ],
                [
                    -0.78954,
                    0.78954,
                    -2.37194
                ]
            ],
            [
                [
                    -2.96539,
                    1.65465,
                    0.89745
                ],
                [
                    1.6548,
                    -2.96557,
                    -0.89793
                ],
                [
                    0.78981,
                    -0.78981,
                    -2.37183
                ]
            ],
            [
                [
                    -1.78725,
                    -0.5496,
                    -0.0
                ],
                [
                    -0.5496,
                    -1.78725,
                    -0.0
                ],
                [
                    -1e-05,
                    -1e-05,
                    -3.97158
                ]
            ],
            [
                [
                    -1.78729,
                    0.54975,
                    -0.0
                ],
                [
                    0.5496,
                    -1.78725,
                    -0.0
                ],
                [
                    1e-05,
                    -1e-05,
                    -3.97158
                ]
            ],
            [
                [
                    -1.78725,
                    0.5496,
                    -0.0
                ],
                [
                    0.54975,
                    -1.78729,
                    -0.0
                ],
                [
                    -1e-05,
                    1e-05,
                    -3.97158
                ]
            ],
            [
                [
                    -1.78729,
                    -0.54975,
                    -0.0
                ],
                [
                    -0.54975,
                    -1.78729,
                    -0.0
                ],
                [
                    1e-05,
                    1e-05,
                    -3.97158
                ]
            ],
            [
                [
                    -2.96539,
                    -1.65465,
                    0.89745
                ],
                [
                    -1.65465,
                    -2.96539,
                    0.89745
                ],
                [
                    0.78981,
                    0.78981,
                    -2.37183
                ]
            ],
            [
                [
                    -2.96557,
                    1.6548,
                    -0.89793
                ],
                [
                    1.65465,
                    -2.96539,
                    0.89745
                ],
                [
                    -0.78981,
                    0.78981,
                    -2.37183
                ]
            ]
        ]
    },
    "band_gap": 3.2598999999999996,
    "is_direct": false,
    "formula": "MgTa2O6"
}