{
    "mp_id": "mp-9200",
    "nelements": 3,
    "nsites": 5,
    "elements": [
        "Au",
        "K",
        "O"
    ],
    "structure": {
        "@module": "pymatgen.core.structure",
        "@class": "Structure",
        "charge": null,
        "lattice": {
            "matrix": [
                [
                    5.25735753,
                    0.0,
                    0.0
                ],
                [
                    0.0,
                    5.25735753,
                    0.0
                ],
                [
                    0.0,
                    0.0,
                    5.25735753
                ]
            ],
            "a": 5.25735753,
            "b": 5.25735753,
            "c": 5.25735753,
            "alpha": 90.0,
            "beta": 90.0,
            "gamma": 90.0,
            "volume": 145.3123537588133
        },
        "sites": [
            {
                "species": [
                    {
                        "element": "K",
                        "occu": 1
                    }
                ],
                "abc": [
                    0.0,
                    0.5,
                    0.5
                ],
                "xyz": [
                    0.0,
                    2.628678765,
                    2.628678765
                ],
                "label": "K",
                "properties": {}
            },
            {
                "species": [
                    {
                        "element": "K",
                        "occu": 1
                    }
                ],
                "abc": [
                    0.5,
                    0.5,
                    0.0
                ],
                "xyz": [
                    2.628678765,
                    2.628678765,
                    0.0
                ],
                "label": "K",
                "properties": {}
            },
            {
                "species": [
                    {
                        "element": "K",
                        "occu": 1
                    }
                ],
                "abc": [
                    0.5,
                    0.0,
                    0.5
                ],
                "xyz": [
                    2.628678765,
                    0.0,
                    2.628678765
                ],
                "label": "K",
                "properties": {}
            },
            {
                "species": [
                    {
                        "element": "Au",
                        "occu": 1
                    }
                ],
                "abc": [
                    0.0,
                    0.0,
                    0.0
                ],
                "xyz": [
                    0.0,
                    0.0,
                    0.0
                ],
                "label": "Au",
                "properties": {}
            },
            {
                "species": [
                    {
                        "element": "O",
                        "occu": 1
                    }
                ],
                "abc": [
                    0.5,
                    0.5,
                    0.5
                ],
                "xyz": [
                    2.628678765,
                    2.628678765,
                    2.628678765
                ],
                "label": "O",
                "properties": {}
            }
        ]
    },
    "spacegroup": {
        "source": "spglib",
        "symbol": "Pm-3m",
        "number": 221,
        "point_group": "m-3m",
        "crystal_system": "cubic",
        "hall": "-P 4 2 3"
    },
    "dielectric": {
        "epsilon_ionic": [
            [
                9.28016918,
                -0.0,
                -0.0
            ],
            [
                -0.0,
                9.28016395,
                0.0
            ],
            [
                -0.0,
                0.0,
                9.28018536
            ]
        ],
        "epsilon_ionic_avg": 9.28017283,
        "epsilon_ionic_eig": [
            9.28016918,
            9.28016395,
            9.28018536
        ],
        "epsilon_electronic": [
            [
                4.91856522,
                0.0,
                -0.0
            ],
            [
                0.0,
                4.91856522,
                0.0
            ],
            [
                0.0,
                0.0,
                4.91856522
            ]
        ],
        "epsilon_electronic_avg": 4.91856522,
        "epsilon_electronic_eig": [
            4.91856522,
            4.91856522,
            4.91856522
        ]
    },
    "phonon": {
        "lowest_freq": -0.03266929377177209,
        "frequency": [
            -0.03266929377177209,
            -0.03266929377177209,
            -0.03266929377177209,
            1.307832185422998,
            1.307832185422998,
            1.307832185422998,
            1.7151835820304093,
            1.7151835820304093,
            1.7151835820304093,
            3.5702163514843135,
            3.5702163514843135,
            3.5702163514843135,
            7.326709259614982,
            7.326709259614982,
            7.326709259614982
        ]
    },
    "born_effective_charge": {
        "avg_abs_trace": 1.3910126666666667,
        "tensors": [
            [
                [
                    0.96719,
                    0.0,
                    0.0
                ],
                [
                    0.0,
                    1.25517,
                    0.0
                ],
                [
                    -0.0,
                    0.0,
                    1.25517
                ]
            ],
            [
                [
                    1.25517,
                    -0.0,
                    -0.0
                ],
                [
                    -0.0,
                    1.25517,
                    -0.0
                ],
                [
                    0.0,
                    -0.0,
                    0.96719
                ]
            ],
            [
                [
                    1.25517,
                    0.0,
                    0.0
                ],
                [
                    -0.0,
                    0.96719,
                    -0.0
                ],
                [
                    -0.0,
                    0.0,
                    1.25517
                ]
            ],
            [
                [
                    -0.98535,
                    -0.0,
                    0.0
                ],
                [
                    -0.0,
                    -0.98536,
                    0.0
                ],
                [
                    0.0,
                    0.0,
                    -0.98535
                ]
            ],
            [
                [
                    -2.49218,
                    -0.0,
                    0.0
                ],
                [
                    0.0,
                    -2.49218,
                    -0.0
                ],
                [
                    0.0,
                    -0.0,
                    -2.49218
                ]
            ]
        ]
    },
    "band_gap": 0.5030000000000001,
    "is_direct": false,
    "formula": "K3AuO"
}