{
    "mp_id": "mp-9298",
    "nelements": 3,
    "nsites": 14,
    "elements": [
        "Au",
        "O",
        "Sr"
    ],
    "structure": {
        "@module": "pymatgen.core.structure",
        "@class": "Structure",
        "charge": null,
        "lattice": {
            "matrix": [
                [
                    -3.08328939,
                    3.08328941,
                    5.06654837
                ],
                [
                    3.08328939,
                    -3.08328941,
                    5.06654837
                ],
                [
                    3.08328941,
                    3.08328939,
                    -5.06654837
                ]
            ],
            "a": 6.6845537946712925,
            "b": 6.6845537946712925,
            "c": 6.6845537946712925,
            "alpha": 125.06365287392632,
            "beta": 125.06365287392632,
            "gamma": 81.43262881519877,
            "volume": 192.66408499166516
        },
        "sites": [
            {
                "species": [
                    {
                        "element": "Sr",
                        "occu": 1
                    }
                ],
                "abc": [
                    0.75,
                    0.25,
                    0.5
                ],
                "xyz": [
                    1.0000000161269895e-08,
                    3.0832894,
                    2.533274185
                ],
                "label": "Sr",
                "properties": {}
            },
            {
                "species": [
                    {
                        "element": "Sr",
                        "occu": 1
                    }
                ],
                "abc": [
                    0.0,
                    0.0,
                    0.0
                ],
                "xyz": [
                    0.0,
                    0.0,
                    0.0
                ],
                "label": "Sr",
                "properties": {}
            },
            {
                "species": [
                    {
                        "element": "Au",
                        "occu": 1
                    }
                ],
                "abc": [
                    0.375,
                    0.625,
                    0.25
                ],
                "xyz": [
                    1.5416447000000002,
                    -4.99999974756804e-09,
                    3.7999112774999997
                ],
                "label": "Au",
                "properties": {}
            },
            {
                "species": [
                    {
                        "element": "Au",
                        "occu": 1
                    }
                ],
                "abc": [
                    0.875,
                    0.625,
                    0.25
                ],
                "xyz": [
                    5.00000019165725e-09,
                    1.5416447000000002,
                    6.3331854624999995
                ],
                "label": "Au",
                "properties": {}
            },
            {
                "species": [
                    {
                        "element": "Au",
                        "occu": 1
                    }
                ],
                "abc": [
                    0.375,
                    0.125,
                    0.75
                ],
                "xyz": [
                    1.5416447100000004,
                    3.083289395,
                    -1.2666370925
                ],
                "label": "Au",
                "properties": {}
            },
            {
                "species": [
                    {
                        "element": "Au",
                        "occu": 1
                    }
                ],
                "abc": [
                    0.375,
                    0.625,
                    0.75
                ],
                "xyz": [
                    3.0832894050000004,
                    1.54164469,
                    1.2666370925
                ],
                "label": "Au",
                "properties": {}
            },
            {
                "species": [
                    {
                        "element": "O",
                        "occu": 1
                    }
                ],
                "abc": [
                    0.57978,
                    0.94860018,
                    0.93109234
                ],
                "xyz": [
                    4.00800649946601,
                    1.7336477778439785,
                    3.026187732172821
                ],
                "label": "O",
                "properties": {}
            },
            {
                "species": [
                    {
                        "element": "O",
                        "occu": 1
                    }
                ],
                "abc": [
                    0.69860018,
                    0.26750785,
                    0.86882019
                ],
                "xyz": [
                    1.349641683821809,
                    4.008006489466009,
                    0.49291354717282054
                ],
                "label": "O",
                "properties": {}
            },
            {
                "species": [
                    {
                        "element": "O",
                        "occu": 1
                    }
                ],
                "abc": [
                    0.39868766,
                    0.82978,
                    0.13117981
                ],
                "xyz": [
                    1.7336477570110846,
                    -0.9247171302989032,
                    5.5594619678383035
                ],
                "label": "O",
                "properties": {}
            },
            {
                "species": [
                    {
                        "element": "O",
                        "occu": 1
                    }
                ],
                "abc": [
                    0.01750785,
                    0.64868766,
                    0.06890766
                ],
                "xyz": [
                    2.1585722697010965,
                    -1.7336477670110846,
                    3.026187782838304
                ],
                "label": "O",
                "properties": {}
            },
            {
                "species": [
                    {
                        "element": "O",
                        "occu": 1
                    }
                ],
                "abc": [
                    0.17022,
                    0.30139982,
                    0.56890766
                ],
                "xyz": [
                    2.15857231053399,
                    1.3496416021560216,
                    -0.49291354717282143
                ],
                "label": "O",
                "properties": {}
            },
            {
                "species": [
                    {
                        "element": "O",
                        "occu": 1
                    }
                ],
                "abc": [
                    0.05139982,
                    0.98249215,
                    0.63117981
                ],
                "xyz": [
                    4.816937126178191,
                    -0.9247171094660094,
                    2.0403606378271792
                ],
                "label": "O",
                "properties": {}
            },
            {
                "species": [
                    {
                        "element": "O",
                        "occu": 1
                    }
                ],
                "abc": [
                    0.73249215,
                    0.60131234,
                    0.43109234
                ],
                "xyz": [
                    0.9247171302989035,
                    1.7336477570110849,
                    4.573634772161695
                ],
                "label": "O",
                "properties": {}
            },
            {
                "species": [
                    {
                        "element": "O",
                        "occu": 1
                    }
                ],
                "abc": [
                    0.35131234,
                    0.42022,
                    0.36882019
                ],
                "xyz": [
                    1.3496416429889153,
                    0.9247171202989037,
                    2.040360587161695
                ],
                "label": "O",
                "properties": {}
            }
        ]
    },
    "spacegroup": {
        "source": "spglib",
        "symbol": "I4_1/a",
        "number": 88,
        "point_group": "4/m",
        "crystal_system": "tetragonal",
        "hall": "I 4bw -1bw"
    },
    "dielectric": {
        "epsilon_ionic": [
            [
                3.65794013,
                -2.342e-05,
                -0.0
            ],
            [
                -2.342e-05,
                3.65793101,
                0.0
            ],
            [
                -0.0,
                0.0,
                3.7479992
            ]
        ],
        "epsilon_ionic_avg": 3.6879567800000004,
        "epsilon_ionic_eig": [
            3.657959429798826,
            3.6579117102011742,
            3.7479992
        ],
        "epsilon_electronic": [
            [
                5.37939082,
                8.6e-07,
                0.0
            ],
            [
                -8.6e-07,
                5.37939082,
                0.0
            ],
            [
                0.0,
                0.0,
                7.10954494
            ]
        ],
        "epsilon_electronic_avg": 5.9561088600000005,
        "epsilon_electronic_eig": [
            5.37939082,
            5.37939082,
            7.10954494
        ]
    },
    "phonon": {
        "lowest_freq": -0.017866486275035138,
        "frequency": [
            -0.017866486275035138,
            -0.008423108826593403,
            -0.008423108826593403,
            3.105638290219236,
            3.115772396896056,
            3.5689954140792555,
            3.5689954140792555,
            3.715405938842106,
            3.8341873378592615,
            3.8341873378592615,
            3.8615297154509456,
            4.21249710908735,
            4.21249710908735,
            4.269302089746744,
            4.3014681507647765,
            5.702039853246388,
            5.702039853246388,
            6.5280355812933974,
            7.027800065287775,
            7.590010544929603,
            7.590010544929603,
            8.356773548833347,
            9.888955104426154,
            9.888955104426154,
            10.291785813922392,
            10.864675037257348,
            13.72485593290433,
            13.874351947088206,
            13.874351947088206,
            14.73195794259414,
            15.941114540504342,
            16.280176553350817,
            16.280176553350817,
            16.974271367814264,
            17.820598507890217,
            18.175462403480207,
            18.175462403480207,
            18.408589694448334,
            18.527560384182834,
            18.527560384182834,
            18.802033620839783,
            18.828575253488253
        ]
    },
    "born_effective_charge": {
        "avg_abs_trace": 1.8602842857142858,
        "tensors": [
            [
                [
                    2.78463,
                    -0.04803,
                    -1e-05
                ],
                [
                    0.04801,
                    2.78463,
                    -0.00022
                ],
                [
                    0.0,
                    -0.0,
                    2.44337
                ]
            ],
            [
                [
                    2.78463,
                    -0.04803,
                    1e-05
                ],
                [
                    0.04801,
                    2.78463,
                    0.00022
                ],
                [
                    0.0,
                    -0.0,
                    2.44337
                ]
            ],
            [
                [
                    0.61947,
                    -0.77176,
                    -0.68373
                ],
                [
                    -0.72528,
                    2.59814,
                    -0.29758
                ],
                [
                    -0.22051,
                    0.5533,
                    2.54257
                ]
            ],
            [
                [
                    2.59814,
                    0.72523,
                    -0.29756
                ],
                [
                    0.77176,
                    0.61946,
                    0.68373
                ],
                [
                    0.5533,
                    0.22051,
                    2.54257
                ]
            ],
            [
                [
                    0.61947,
                    -0.77176,
                    0.68373
                ],
                [
                    -0.72528,
                    2.59814,
                    0.29758
                ],
                [
                    0.22051,
                    -0.5533,
                    2.54257
                ]
            ],
            [
                [
                    2.59814,
                    0.72523,
                    0.29756
                ],
                [
                    0.77176,
                    0.61946,
                    -0.68373
                ],
                [
                    -0.5533,
                    -0.22051,
                    2.54257
                ]
            ],
            [
                [
                    -1.33323,
                    0.27365,
                    -0.58638
                ],
                [
                    0.22647,
                    -1.66792,
                    0.50686
                ],
                [
                    -0.51706,
                    0.59835,
                    -1.88216
                ]
            ],
            [
                [
                    -1.66783,
                    -0.22629,
                    -0.50675
                ],
                [
                    -0.27386,
                    -1.33329,
                    -0.58619
                ],
                [
                    -0.59835,
                    -0.51706,
                    -1.88216
                ]
            ],
            [
                [
                    -1.66777,
                    -0.22654,
                    0.50728
                ],
                [
                    -0.27348,
                    -1.33337,
                    0.58654
                ],
                [
                    0.59835,
                    0.51706,
                    -1.88216
                ]
            ],
            [
                [
                    -1.33342,
                    0.27374,
                    0.58635
                ],
                [
                    0.22637,
                    -1.66766,
                    -0.50718
                ],
                [
                    0.51706,
                    -0.59835,
                    -1.88216
                ]
            ],
            [
                [
                    -1.33342,
                    0.27374,
                    -0.58635
                ],
                [
                    0.22637,
                    -1.66766,
                    0.50718
                ],
                [
                    -0.51707,
                    0.59841,
                    -1.88209
                ]
            ],
            [
                [
                    -1.66777,
                    -0.22654,
                    -0.50728
                ],
                [
                    -0.27348,
                    -1.33337,
                    -0.58654
                ],
                [
                    -0.59841,
                    -0.51707,
                    -1.88209
                ]
            ],
            [
                [
                    -1.33323,
                    0.27365,
                    0.58638
                ],
                [
                    0.22647,
                    -1.66792,
                    -0.50686
                ],
                [
                    0.51707,
                    -0.59841,
                    -1.88209
                ]
            ],
            [
                [
                    -1.66783,
                    -0.22629,
                    0.50675
                ],
                [
                    -0.27386,
                    -1.33329,
                    0.58619
                ],
                [
                    0.59841,
                    0.51707,
                    -1.88209
                ]
            ]
        ]
    },
    "band_gap": 1.8803999999999998,
    "is_direct": false,
    "formula": "Sr(AuO2)2"
}