{
    "mp_id": "mp-997024",
    "nelements": 3,
    "nsites": 8,
    "elements": [
        "Au",
        "Cs",
        "O"
    ],
    "structure": {
        "@module": "pymatgen.core.structure",
        "@class": "Structure",
        "charge": null,
        "lattice": {
            "matrix": [
                [
                    2.56760216,
                    -6.20982084,
                    0.0
                ],
                [
                    2.56760216,
                    6.20982084,
                    0.0
                ],
                [
                    0.0,
                    0.0,
                    6.01389921
                ]
            ],
            "a": 6.719706520149148,
            "b": 6.719706520149148,
            "c": 6.01389921,
            "alpha": 90.0,
            "beta": 90.0,
            "gamma": 135.07231299734804,
            "volume": 191.77542054526762
        },
        "sites": [
            {
                "species": [
                    {
                        "element": "Cs",
                        "occu": 1
                    }
                ],
                "abc": [
                    0.30709026,
                    0.69290974,
                    0.25
                ],
                "xyz": [
                    2.56760216,
                    2.3958698473819635,
                    1.5034748025
                ],
                "label": "Cs",
                "properties": {}
            },
            {
                "species": [
                    {
                        "element": "Cs",
                        "occu": 1
                    }
                ],
                "abc": [
                    0.69290974,
                    0.30709026,
                    0.75
                ],
                "xyz": [
                    2.56760216,
                    -2.3958698473819635,
                    4.5104244075
                ],
                "label": "Cs",
                "properties": {}
            },
            {
                "species": [
                    {
                        "element": "Au",
                        "occu": 1
                    }
                ],
                "abc": [
                    0.99785768,
                    0.00214232,
                    0.75
                ],
                "xyz": [
                    2.5676021599999994,
                    -6.1832139932361025,
                    4.5104244075
                ],
                "label": "Au",
                "properties": {}
            },
            {
                "species": [
                    {
                        "element": "Au",
                        "occu": 1
                    }
                ],
                "abc": [
                    0.00214232,
                    0.99785768,
                    0.25
                ],
                "xyz": [
                    2.5676021599999994,
                    6.1832139932361025,
                    1.5034748025
                ],
                "label": "Au",
                "properties": {}
            },
            {
                "species": [
                    {
                        "element": "O",
                        "occu": 1
                    }
                ],
                "abc": [
                    0.10612014,
                    0.89387986,
                    0.9958555
                ],
                "xyz": [
                    2.56760216,
                    4.8918467261685645,
                    5.988974604724155
                ],
                "label": "O",
                "properties": {}
            },
            {
                "species": [
                    {
                        "element": "O",
                        "occu": 1
                    }
                ],
                "abc": [
                    0.89387986,
                    0.10612014,
                    0.4958555
                ],
                "xyz": [
                    2.56760216,
                    -4.8918467261685645,
                    2.982024999724155
                ],
                "label": "O",
                "properties": {}
            },
            {
                "species": [
                    {
                        "element": "O",
                        "occu": 1
                    }
                ],
                "abc": [
                    0.10612014,
                    0.89387986,
                    0.5041445
                ],
                "xyz": [
                    2.56760216,
                    4.8918467261685645,
                    3.031874210275845
                ],
                "label": "O",
                "properties": {}
            },
            {
                "species": [
                    {
                        "element": "O",
                        "occu": 1
                    }
                ],
                "abc": [
                    0.89387986,
                    0.10612014,
                    0.0041445
                ],
                "xyz": [
                    2.56760216,
                    -4.8918467261685645,
                    0.024924605275845
                ],
                "label": "O",
                "properties": {}
            }
        ]
    },
    "spacegroup": {
        "source": "spglib",
        "symbol": "Cmcm",
        "number": 63,
        "point_group": "mmm",
        "crystal_system": "orthorhombic",
        "hall": "-C 2c 2"
    },
    "dielectric": {
        "epsilon_ionic": [
            [
                2.61560565,
                0.0,
                1e-08
            ],
            [
                0.0,
                2.19633838,
                0.0
            ],
            [
                1e-08,
                0.0,
                4.7303398
            ]
        ],
        "epsilon_ionic_avg": 3.180761276666667,
        "epsilon_ionic_eig": [
            2.61560565,
            4.7303398,
            2.19633838
        ],
        "epsilon_electronic": [
            [
                2.51125132,
                0.0,
                0.0
            ],
            [
                0.0,
                3.20187046,
                0.0
            ],
            [
                0.0,
                0.0,
                4.80114587
            ]
        ],
        "epsilon_electronic_avg": 3.5047558833333334,
        "epsilon_electronic_eig": [
            2.51125132,
            3.20187046,
            4.80114587
        ]
    },
    "phonon": {
        "lowest_freq": -0.07863451573298672,
        "frequency": [
            -0.07863451573298672,
            -0.042395318926293876,
            -0.008786386115239605,
            1.3524519450044965,
            1.6345990685881913,
            1.8238965488311085,
            2.00022478597656,
            2.0453272816234187,
            2.6858168622585583,
            2.9169409261770203,
            2.926410850677459,
            3.205873285797069,
            4.4321471437085656,
            7.46994557962904,
            8.015222430221046,
            8.394863577092558,
            14.539841566824041,
            16.026569194636277,
            16.238561758129144,
            16.52791600181133,
            16.967777297974823,
            17.32268660404448,
            17.711655720847926,
            17.938010751282057
        ]
    },
    "born_effective_charge": {
        "avg_abs_trace": 1.65527,
        "tensors": [
            [
                [
                    1.35445,
                    1e-05,
                    0.0
                ],
                [
                    0.0,
                    1.57319,
                    0.0
                ],
                [
                    0.0,
                    0.00022,
                    1.11016
                ]
            ],
            [
                [
                    1.35445,
                    -1e-05,
                    0.0
                ],
                [
                    0.0,
                    1.57323,
                    0.0
                ],
                [
                    -0.0,
                    -0.00022,
                    1.11016
                ]
            ],
            [
                [
                    -0.0895,
                    -2e-05,
                    0.0
                ],
                [
                    0.0,
                    1.18107,
                    0.0
                ],
                [
                    -0.0,
                    -0.00018,
                    4.80213
                ]
            ],
            [
                [
                    -0.0895,
                    2e-05,
                    0.0
                ],
                [
                    0.0,
                    1.18125,
                    0.0
                ],
                [
                    -0.0,
                    0.00018,
                    4.80213
                ]
            ],
            [
                [
                    -0.63248,
                    -4e-05,
                    -0.0001
                ],
                [
                    0.0,
                    -1.37727,
                    -0.03236
                ],
                [
                    -0.0,
                    0.05841,
                    -2.95631
                ]
            ],
            [
                [
                    -0.63248,
                    4e-05,
                    -0.0001
                ],
                [
                    0.0,
                    -1.3771,
                    0.03232
                ],
                [
                    0.0,
                    -0.05841,
                    -2.95631
                ]
            ],
            [
                [
                    -0.63248,
                    -4e-05,
                    0.0001
                ],
                [
                    0.0,
                    -1.37727,
                    0.03236
                ],
                [
                    -0.0,
                    -0.05909,
                    -2.95599
                ]
            ],
            [
                [
                    -0.63248,
                    4e-05,
                    0.0001
                ],
                [
                    0.0,
                    -1.3771,
                    -0.03232
                ],
                [
                    0.0,
                    0.05909,
                    -2.95599
                ]
            ]
        ]
    },
    "band_gap": 1.871,
    "is_direct": false,
    "formula": "CsAuO2"
}