{
    "mp_id": "mp-9259",
    "nelements": 4,
    "nsites": 11,
    "elements": [
        "B",
        "Ba",
        "Mg",
        "O"
    ],
    "structure": {
        "@module": "pymatgen.core.structure",
        "@class": "Structure",
        "charge": null,
        "lattice": {
            "matrix": [
                [
                    2.67686899,
                    1.54549142,
                    5.47164405
                ],
                [
                    -2.67686899,
                    1.54549142,
                    5.47164405
                ],
                [
                    0.0,
                    -3.09098284,
                    5.47164405
                ]
            ],
            "a": 6.284350398316252,
            "b": 6.284350398316252,
            "c": 6.284350684603372,
            "alpha": 50.42263566887432,
            "beta": 50.42263566887432,
            "gamma": 50.42262673845377,
            "volume": 135.81971119370036
        },
        "sites": [
            {
                "species": [
                    {
                        "element": "Ba",
                        "occu": 1
                    }
                ],
                "abc": [
                    0.77659859,
                    0.77659859,
                    0.77659859
                ],
                "xyz": [
                    0.0,
                    0.0,
                    12.74781316263567
                ],
                "label": "Ba",
                "properties": {}
            },
            {
                "species": [
                    {
                        "element": "Ba",
                        "occu": 1
                    }
                ],
                "abc": [
                    0.22340141,
                    0.22340141,
                    0.22340141
                ],
                "xyz": [
                    0.0,
                    0.0,
                    3.667118987364331
                ],
                "label": "Ba",
                "properties": {}
            },
            {
                "species": [
                    {
                        "element": "Mg",
                        "occu": 1
                    }
                ],
                "abc": [
                    0.0,
                    0.0,
                    0.0
                ],
                "xyz": [
                    0.0,
                    0.0,
                    0.0
                ],
                "label": "Mg",
                "properties": {}
            },
            {
                "species": [
                    {
                        "element": "B",
                        "occu": 1
                    }
                ],
                "abc": [
                    0.41071882,
                    0.41071882,
                    0.41071882
                ],
                "xyz": [
                    0.0,
                    0.0,
                    6.741921563028063
                ],
                "label": "B",
                "properties": {}
            },
            {
                "species": [
                    {
                        "element": "B",
                        "occu": 1
                    }
                ],
                "abc": [
                    0.58928118,
                    0.58928118,
                    0.58928118
                ],
                "xyz": [
                    0.0,
                    0.0,
                    9.673010586971937
                ],
                "label": "B",
                "properties": {}
            },
            {
                "species": [
                    {
                        "element": "O",
                        "occu": 1
                    }
                ],
                "abc": [
                    0.28989732,
                    0.74042674,
                    0.74042674
                ],
                "xyz": [
                    -1.2060082334806856,
                    -0.6962893530675764,
                    9.68891807885274
                ],
                "label": "O",
                "properties": {}
            },
            {
                "species": [
                    {
                        "element": "O",
                        "occu": 1
                    }
                ],
                "abc": [
                    0.74042674,
                    0.74042674,
                    0.28989732
                ],
                "xyz": [
                    0.0,
                    1.3925787061351529,
                    9.68891807885274
                ],
                "label": "O",
                "properties": {}
            },
            {
                "species": [
                    {
                        "element": "O",
                        "occu": 1
                    }
                ],
                "abc": [
                    0.74042674,
                    0.28989732,
                    0.74042674
                ],
                "xyz": [
                    1.2060082334806856,
                    -0.6962893530675764,
                    9.68891807885274
                ],
                "label": "O",
                "properties": {}
            },
            {
                "species": [
                    {
                        "element": "O",
                        "occu": 1
                    }
                ],
                "abc": [
                    0.25957326,
                    0.71010268,
                    0.25957326
                ],
                "xyz": [
                    -1.2060082334806859,
                    0.6962893530675766,
                    6.726014071147259
                ],
                "label": "O",
                "properties": {}
            },
            {
                "species": [
                    {
                        "element": "O",
                        "occu": 1
                    }
                ],
                "abc": [
                    0.25957326,
                    0.25957326,
                    0.71010268
                ],
                "xyz": [
                    0.0,
                    -1.3925787061351529,
                    6.72601407114726
                ],
                "label": "O",
                "properties": {}
            },
            {
                "species": [
                    {
                        "element": "O",
                        "occu": 1
                    }
                ],
                "abc": [
                    0.71010268,
                    0.25957326,
                    0.25957326
                ],
                "xyz": [
                    1.2060082334806859,
                    0.6962893530675766,
                    6.726014071147259
                ],
                "label": "O",
                "properties": {}
            }
        ]
    },
    "spacegroup": {
        "source": "spglib",
        "symbol": "R-3m",
        "number": 166,
        "point_group": "-3m",
        "crystal_system": "trigonal",
        "hall": "-R 3 2\""
    },
    "dielectric": {
        "epsilon_ionic": [
            [
                7.43392045,
                2.1e-07,
                1e-08
            ],
            [
                2.1e-07,
                7.43386952,
                1.524e-05
            ],
            [
                1e-08,
                1.524e-05,
                9.29900262
            ]
        ],
        "epsilon_ionic_avg": 8.055597529999998,
        "epsilon_ionic_eig": [
            7.433920450865877,
            7.433869519009595,
            9.299002620124526
        ],
        "epsilon_electronic": [
            [
                3.69726559,
                0.0,
                0.0
            ],
            [
                -0.0,
                3.69726541,
                0.0
            ],
            [
                0.0,
                -0.0,
                3.19907505
            ]
        ],
        "epsilon_electronic_avg": 3.5312020166666667,
        "epsilon_electronic_eig": [
            3.69726559,
            3.69726541,
            3.19907505
        ]
    },
    "phonon": {
        "lowest_freq": -0.009759687923163446,
        "frequency": [
            -0.009759687923163446,
            -0.009303831994854747,
            -0.009303831771570282,
            1.8123377859540166,
            1.8123378196673965,
            2.808872288948818,
            3.8369609565125438,
            4.96784478097814,
            4.967844854772756,
            5.414431391453708,
            5.41443152686966,
            6.728099334132352,
            7.488160547419657,
            7.488160677972482,
            7.589682562338517,
            7.589682578439331,
            7.878844129814656,
            8.786303780162468,
            9.538278598359511,
            9.538278803344198,
            10.055364297710152,
            16.710257928290805,
            16.71025800141958,
            16.843872912631003,
            16.843872985179683,
            21.401156341119634,
            22.413547240136044,
            26.975714427277314,
            27.234618775619474,
            35.28682627958675,
            35.28682704145788,
            36.24613390416201,
            36.24613467958305
        ]
    },
    "born_effective_charge": {
        "avg_abs_trace": 2.1092806060606066,
        "tensors": [
            [
                [
                    2.99035,
                    -6e-05,
                    -0.00019
                ],
                [
                    0.0,
                    2.99036,
                    8e-05
                ],
                [
                    0.0,
                    0.0,
                    2.34125
                ]
            ],
            [
                [
                    2.99035,
                    6e-05,
                    0.00019
                ],
                [
                    0.0,
                    2.99033,
                    -7e-05
                ],
                [
                    0.0,
                    0.0,
                    2.34151
                ]
            ],
            [
                [
                    2.34458,
                    -0.0,
                    0.0
                ],
                [
                    0.0,
                    2.34455,
                    -0.0
                ],
                [
                    0.0,
                    0.0,
                    2.227
                ]
            ],
            [
                [
                    2.55101,
                    1e-05,
                    -1e-05
                ],
                [
                    0.0,
                    2.55093,
                    -0.0
                ],
                [
                    0.0,
                    0.0,
                    0.51942
                ]
            ],
            [
                [
                    2.55101,
                    -1e-05,
                    1e-05
                ],
                [
                    0.0,
                    2.55109,
                    0.0
                ],
                [
                    0.0,
                    0.0,
                    0.51938
                ]
            ],
            [
                [
                    -2.38853,
                    -0.26096,
                    -0.06188
                ],
                [
                    -0.26097,
                    -2.08719,
                    -0.03562
                ],
                [
                    0.0103,
                    0.00595,
                    -1.32477
                ]
            ],
            [
                [
                    -1.93655,
                    0.00017,
                    -0.00019
                ],
                [
                    0.0,
                    -2.53927,
                    0.0713
                ],
                [
                    0.0,
                    -0.0119,
                    -1.32477
                ]
            ],
            [
                [
                    -2.38857,
                    0.26096,
                    0.06186
                ],
                [
                    0.26097,
                    -2.08719,
                    -0.03562
                ],
                [
                    -0.0103,
                    0.00595,
                    -1.32477
                ]
            ],
            [
                [
                    -2.38853,
                    0.26096,
                    0.06188
                ],
                [
                    0.26092,
                    -2.08724,
                    -0.03582
                ],
                [
                    -0.01041,
                    0.00601,
                    -1.32475
                ]
            ],
            [
                [
                    -1.93655,
                    -0.00017,
                    0.00019
                ],
                [
                    0.0,
                    -2.53915,
                    0.07158
                ],
                [
                    0.0,
                    -0.01202,
                    -1.32475
                ]
            ],
            [
                [
                    -2.38857,
                    -0.26096,
                    -0.06186
                ],
                [
                    -0.26092,
                    -2.08724,
                    -0.03582
                ],
                [
                    0.01041,
                    0.00601,
                    -1.32475
                ]
            ]
        ]
    },
    "band_gap": 4.7118,
    "is_direct": true,
    "formula": "Ba2Mg(BO3)2"
}