{
    "mp_id": "mp-990440",
    "nelements": 3,
    "nsites": 24,
    "elements": [
        "Na",
        "O",
        "Zr"
    ],
    "structure": {
        "@module": "pymatgen.core.structure",
        "@class": "Structure",
        "charge": null,
        "lattice": {
            "matrix": [
                [
                    2.81166624,
                    -4.87772812,
                    -0.00011904
                ],
                [
                    2.81166624,
                    4.87772812,
                    -0.00011904
                ],
                [
                    -1.91855023,
                    0.0,
                    10.82740403
                ]
            ],
            "a": 5.630070929567849,
            "b": 5.630070929567849,
            "c": 10.996068070628397,
            "alpha": 94.99992384453937,
            "beta": 94.99992384453937,
            "gamma": 120.0791682819502,
            "volume": 296.98357876052313
        },
        "sites": [
            {
                "species": [
                    {
                        "element": "Na",
                        "occu": 1
                    }
                ],
                "abc": [
                    0.08499223,
                    0.91500777,
                    0.25
                ],
                "xyz": [
                    2.3320286825000003,
                    4.048590139494984,
                    2.7067319675
                ],
                "label": "Na",
                "properties": {}
            },
            {
                "species": [
                    {
                        "element": "Na",
                        "occu": 1
                    }
                ],
                "abc": [
                    0.91500777,
                    0.08499223,
                    0.75
                ],
                "xyz": [
                    1.3727535675000002,
                    -4.048590139494984,
                    8.120433982500002
                ],
                "label": "Na",
                "properties": {}
            },
            {
                "species": [
                    {
                        "element": "Na",
                        "occu": 1
                    }
                ],
                "abc": [
                    0.5,
                    0.0,
                    0.5
                ],
                "xyz": [
                    0.4465580050000001,
                    -2.43886406,
                    5.413642495
                ],
                "label": "Na",
                "properties": {}
            },
            {
                "species": [
                    {
                        "element": "Na",
                        "occu": 1
                    }
                ],
                "abc": [
                    0.0,
                    0.5,
                    0.0
                ],
                "xyz": [
                    1.40583312,
                    2.43886406,
                    -5.952e-05
                ],
                "label": "Na",
                "properties": {}
            },
            {
                "species": [
                    {
                        "element": "Na",
                        "occu": 1
                    }
                ],
                "abc": [
                    0.68280064,
                    0.84117612,
                    0.00027457
                ],
                "xyz": [
                    4.284387230299932,
                    0.7725125323144977,
                    0.0027914661310067005
                ],
                "label": "Na",
                "properties": {}
            },
            {
                "species": [
                    {
                        "element": "Na",
                        "occu": 1
                    }
                ],
                "abc": [
                    0.15882388,
                    0.31719936,
                    0.49972543
                ],
                "xyz": [
                    0.37967013470006883,
                    0.7725125323144973,
                    5.410672468868993
                ],
                "label": "Na",
                "properties": {}
            },
            {
                "species": [
                    {
                        "element": "Na",
                        "occu": 1
                    }
                ],
                "abc": [
                    0.31719936,
                    0.15882388,
                    0.99972543
                ],
                "xyz": [
                    -0.5796049802999312,
                    -0.7725125323144973,
                    10.824374483868993
                ],
                "label": "Na",
                "properties": {}
            },
            {
                "species": [
                    {
                        "element": "Na",
                        "occu": 1
                    }
                ],
                "abc": [
                    0.84117612,
                    0.68280064,
                    0.50027457
                ],
                "xyz": [
                    3.3251121152999312,
                    -0.7725125323144977,
                    5.416493481131007
                ],
                "label": "Na",
                "properties": {}
            },
            {
                "species": [
                    {
                        "element": "Zr",
                        "occu": 1
                    }
                ],
                "abc": [
                    0.41808406,
                    0.58191594,
                    0.25
                ],
                "xyz": [
                    2.3320286825000003,
                    0.7991273680284658,
                    2.7067319675
                ],
                "label": "Zr",
                "properties": {}
            },
            {
                "species": [
                    {
                        "element": "Zr",
                        "occu": 1
                    }
                ],
                "abc": [
                    0.58191594,
                    0.41808406,
                    0.75
                ],
                "xyz": [
                    1.3727535675000002,
                    -0.7991273680284658,
                    8.120433982500002
                ],
                "label": "Zr",
                "properties": {}
            },
            {
                "species": [
                    {
                        "element": "Zr",
                        "occu": 1
                    }
                ],
                "abc": [
                    0.24943728,
                    0.75056272,
                    0.75
                ],
                "xyz": [
                    1.3727535675000002,
                    2.4443536503353727,
                    8.120433982500002
                ],
                "label": "Zr",
                "properties": {}
            },
            {
                "species": [
                    {
                        "element": "Zr",
                        "occu": 1
                    }
                ],
                "abc": [
                    0.75056272,
                    0.24943728,
                    0.25
                ],
                "xyz": [
                    2.3320286825000003,
                    -2.4443536503353727,
                    2.7067319675
                ],
                "label": "Zr",
                "properties": {}
            },
            {
                "species": [
                    {
                        "element": "O",
                        "occu": 1
                    }
                ],
                "abc": [
                    0.51195193,
                    0.6812639,
                    0.64315741
                ],
                "xyz": [
                    2.1209948693628755,
                    0.8258577571215961,
                    6.963583092545959
                ],
                "label": "O",
                "properties": {}
            },
            {
                "species": [
                    {
                        "element": "O",
                        "occu": 1
                    }
                ],
                "abc": [
                    0.3187361,
                    0.48804807,
                    0.85684259
                ],
                "xyz": [
                    0.6245122656371256,
                    0.8258577571215961,
                    9.277284872454041
                ],
                "label": "O",
                "properties": {}
            },
            {
                "species": [
                    {
                        "element": "O",
                        "occu": 1
                    }
                ],
                "abc": [
                    0.48804807,
                    0.3187361,
                    0.35684259
                ],
                "xyz": [
                    1.5837873806371254,
                    -0.8258577571215961,
                    3.863582857454041
                ],
                "label": "O",
                "properties": {}
            },
            {
                "species": [
                    {
                        "element": "O",
                        "occu": 1
                    }
                ],
                "abc": [
                    0.6812639,
                    0.51195193,
                    0.14315741
                ],
                "xyz": [
                    3.080269984362875,
                    -0.8258577571215961,
                    1.5498810775459593
                ],
                "label": "O",
                "properties": {}
            },
            {
                "species": [
                    {
                        "element": "O",
                        "occu": 1
                    }
                ],
                "abc": [
                    0.41662593,
                    0.8789087,
                    0.14337723
                ],
                "xyz": [
                    3.3675345643286287,
                    2.2548896666204925,
                    1.5522489774698816
                ],
                "label": "O",
                "properties": {}
            },
            {
                "species": [
                    {
                        "element": "O",
                        "occu": 1
                    }
                ],
                "abc": [
                    0.1210913,
                    0.58337407,
                    0.35662277
                ],
                "xyz": [
                    1.2965228006713718,
                    2.254889666620492,
                    3.8612149575301182
                ],
                "label": "O",
                "properties": {}
            },
            {
                "species": [
                    {
                        "element": "O",
                        "occu": 1
                    }
                ],
                "abc": [
                    0.58337407,
                    0.1210913,
                    0.85662277
                ],
                "xyz": [
                    0.337247685671372,
                    -2.254889666620492,
                    9.274916972530118
                ],
                "label": "O",
                "properties": {}
            },
            {
                "species": [
                    {
                        "element": "O",
                        "occu": 1
                    }
                ],
                "abc": [
                    0.8789087,
                    0.41662593,
                    0.64337723
                ],
                "xyz": [
                    2.4082594493286287,
                    -2.2548896666204925,
                    6.965950992469882
                ],
                "label": "O",
                "properties": {}
            },
            {
                "species": [
                    {
                        "element": "O",
                        "occu": 1
                    }
                ],
                "abc": [
                    0.75498945,
                    0.9523834,
                    0.3585474
                ],
                "xyz": [
                    4.112671404701682,
                    0.9628340206328736,
                    3.8819343180419583
                ],
                "label": "O",
                "properties": {}
            },
            {
                "species": [
                    {
                        "element": "O",
                        "occu": 1
                    }
                ],
                "abc": [
                    0.0476166,
                    0.24501055,
                    0.1414526
                ],
                "xyz": [
                    0.551385960298318,
                    0.9628340206328738,
                    1.5315296169580421
                ],
                "label": "O",
                "properties": {}
            },
            {
                "species": [
                    {
                        "element": "O",
                        "occu": 1
                    }
                ],
                "abc": [
                    0.24501055,
                    0.0476166,
                    0.6414526
                ],
                "xyz": [
                    -0.4078891547016821,
                    -0.9628340206328738,
                    6.945231631958043
                ],
                "label": "O",
                "properties": {}
            },
            {
                "species": [
                    {
                        "element": "O",
                        "occu": 1
                    }
                ],
                "abc": [
                    0.9523834,
                    0.75498945,
                    0.8585474
                ],
                "xyz": [
                    3.1533962897016816,
                    -0.9628340206328736,
                    9.295636333041958
                ],
                "label": "O",
                "properties": {}
            }
        ]
    },
    "spacegroup": {
        "source": "spglib",
        "symbol": "C2/c",
        "number": 15,
        "point_group": "2/m",
        "crystal_system": "monoclinic",
        "hall": "-C 2yc"
    },
    "dielectric": {
        "epsilon_ionic": [
            [
                9.88824415,
                0.0,
                -0.30273595
            ],
            [
                0.0,
                10.36330718,
                -0.0
            ],
            [
                -0.30273595,
                -0.0,
                5.1096132
            ]
        ],
        "epsilon_ionic_avg": 8.45372151,
        "epsilon_ionic_eig": [
            9.907346723117245,
            5.090510626882756,
            10.36330718
        ],
        "epsilon_electronic": [
            [
                3.64708529,
                0.0,
                0.00016888
            ],
            [
                0.0,
                3.66737818,
                0.0
            ],
            [
                0.00016786,
                0.0,
                2.95557763
            ]
        ],
        "epsilon_electronic_avg": 3.4233470333333336,
        "epsilon_electronic_eig": [
            3.647085330994767,
            2.9555775890052334,
            3.66737818
        ]
    },
    "phonon": {
        "lowest_freq": -0.15900822517957183,
        "frequency": [
            -0.15900822517957183,
            -0.0981191933475028,
            -0.022323225425752637,
            2.1819585481991552,
            2.2902372423431245,
            3.372182004925896,
            3.456148386481423,
            3.8980025894215578,
            3.9151706095529937,
            3.925318735243465,
            4.176680007821039,
            4.400834618887066,
            4.670853984358829,
            4.884956254928979,
            5.023526533209041,
            5.518560854003984,
            5.582912335645535,
            5.711869403193742,
            6.031221966480591,
            6.218687490221583,
            6.611553456816415,
            6.8258924080237655,
            6.843249857626196,
            6.912785160198701,
            7.114997604666247,
            7.144187657909548,
            7.929865006646731,
            8.02763397916168,
            8.040560366011892,
            8.094276558800038,
            8.111697553469076,
            8.152032674377109,
            8.427752162819608,
            8.582312588298562,
            8.692034103895294,
            8.73489424046601,
            9.131642126577606,
            9.1458014522868,
            9.1505432144165,
            9.207691085123507,
            9.237944089803744,
            9.523370172071921,
            9.836655268138701,
            9.935696351058619,
            10.005216804962611,
            10.02970356310271,
            10.413930495737107,
            11.071050699583225,
            11.823768588050157,
            11.868971524124104,
            11.910863980004178,
            11.976110188865333,
            12.727866135074175,
            12.901986979009328,
            12.937852344360625,
            12.970832519385953,
            13.019995964649178,
            13.084389448934658,
            13.133602931915686,
            13.160200899032567,
            13.199757512121295,
            13.290730937322953,
            14.192788090426484,
            14.708399217963857,
            14.714231718390181,
            14.728056842264095,
            14.748635379056163,
            17.01896163827607,
            17.2258460660379,
            18.032897098150638,
            18.15063196363385,
            18.160371756477456
        ]
    },
    "born_effective_charge": {
        "avg_abs_trace": 2.158906805555556,
        "tensors": [
            [
                [
                    1.09708,
                    -0.0,
                    0.00551
                ],
                [
                    -0.0,
                    1.09474,
                    0.0
                ],
                [
                    -0.0014,
                    0.0,
                    0.58519
                ]
            ],
            [
                [
                    1.09708,
                    0.0,
                    0.00551
                ],
                [
                    -0.0,
                    1.09473,
                    0.0
                ],
                [
                    -0.0014,
                    -0.0,
                    0.58519
                ]
            ],
            [
                [
                    1.03253,
                    0.13286,
                    0.0053
                ],
                [
                    0.13085,
                    0.88151,
                    -0.00873
                ],
                [
                    -0.005,
                    0.00846,
                    1.35237
                ]
            ],
            [
                [
                    1.03253,
                    -0.13286,
                    0.0053
                ],
                [
                    -0.13085,
                    0.88151,
                    0.00873
                ],
                [
                    -0.005,
                    -0.00846,
                    1.35237
                ]
            ],
            [
                [
                    0.92257,
                    0.06718,
                    -0.00224
                ],
                [
                    0.06596,
                    0.99923,
                    -0.00433
                ],
                [
                    0.0026,
                    0.00491,
                    1.35499
                ]
            ],
            [
                [
                    0.92257,
                    -0.06718,
                    -0.00224
                ],
                [
                    -0.06596,
                    0.99923,
                    0.00433
                ],
                [
                    0.0026,
                    -0.00492,
                    1.35499
                ]
            ],
            [
                [
                    0.92257,
                    0.06718,
                    -0.00224
                ],
                [
                    0.06598,
                    0.99922,
                    -0.00432
                ],
                [
                    0.0026,
                    0.00492,
                    1.35499
                ]
            ],
            [
                [
                    0.92257,
                    -0.06718,
                    -0.00224
                ],
                [
                    -0.06598,
                    0.99922,
                    0.00432
                ],
                [
                    0.0026,
                    -0.00491,
                    1.35499
                ]
            ],
            [
                [
                    5.10039,
                    -1e-05,
                    -0.06174
                ],
                [
                    -0.0,
                    5.173,
                    0.0
                ],
                [
                    0.00529,
                    -4e-05,
                    2.86075
                ]
            ],
            [
                [
                    5.10039,
                    1e-05,
                    -0.06174
                ],
                [
                    -0.0,
                    5.17266,
                    0.0
                ],
                [
                    0.00529,
                    4e-05,
                    2.86075
                ]
            ],
            [
                [
                    5.12597,
                    1e-05,
                    0.05731
                ],
                [
                    -0.0,
                    5.14475,
                    0.0
                ],
                [
                    0.00461,
                    -4e-05,
                    2.85893
                ]
            ],
            [
                [
                    5.12597,
                    -1e-05,
                    0.05731
                ],
                [
                    -0.0,
                    5.14419,
                    0.0
                ],
                [
                    0.00461,
                    4e-05,
                    2.85893
                ]
            ],
            [
                [
                    -1.58264,
                    0.0163,
                    0.40555
                ],
                [
                    -0.01124,
                    -3.1649,
                    -0.00698
                ],
                [
                    0.35241,
                    -0.00452,
                    -1.72555
                ]
            ],
            [
                [
                    -1.58254,
                    -0.01631,
                    0.40551
                ],
                [
                    0.01124,
                    -3.1649,
                    0.00698
                ],
                [
                    0.35226,
                    0.0045,
                    -1.72545
                ]
            ],
            [
                [
                    -1.58254,
                    0.01631,
                    0.40551
                ],
                [
                    -0.01111,
                    -3.16491,
                    -0.00693
                ],
                [
                    0.35226,
                    -0.0045,
                    -1.72545
                ]
            ],
            [
                [
                    -1.58264,
                    -0.0163,
                    0.40555
                ],
                [
                    0.01111,
                    -3.16491,
                    0.00693
                ],
                [
                    0.35241,
                    0.00452,
                    -1.72555
                ]
            ],
            [
                [
                    -2.78001,
                    -0.68417,
                    -0.19914
                ],
                [
                    -0.71785,
                    -1.99017,
                    0.34923
                ],
                [
                    -0.17643,
                    0.30016,
                    -1.72534
                ]
            ],
            [
                [
                    -2.78004,
                    0.6842,
                    -0.19912
                ],
                [
                    0.71785,
                    -1.99017,
                    -0.34923
                ],
                [
                    -0.17642,
                    -0.30018,
                    -1.72536
                ]
            ],
            [
                [
                    -2.78004,
                    -0.6842,
                    -0.19912
                ],
                [
                    -0.71792,
                    -1.99009,
                    0.34919
                ],
                [
                    -0.17642,
                    0.30018,
                    -1.72536
                ]
            ],
            [
                [
                    -2.78001,
                    0.68417,
                    -0.19914
                ],
                [
                    0.71792,
                    -1.99009,
                    -0.34919
                ],
                [
                    -0.17643,
                    -0.30016,
                    -1.72534
                ]
            ],
            [
                [
                    -2.73797,
                    -0.65434,
                    -0.20735
                ],
                [
                    -0.66042,
                    -1.99093,
                    0.34936
                ],
                [
                    -0.18023,
                    0.29863,
                    -1.73273
                ]
            ],
            [
                [
                    -2.73792,
                    0.65435,
                    -0.20734
                ],
                [
                    0.66042,
                    -1.99093,
                    -0.34936
                ],
                [
                    -0.18029,
                    -0.29858,
                    -1.73278
                ]
            ],
            [
                [
                    -2.73792,
                    -0.65435,
                    -0.20734
                ],
                [
                    -0.66039,
                    -1.99099,
                    0.34936
                ],
                [
                    -0.18029,
                    0.29858,
                    -1.73278
                ]
            ],
            [
                [
                    -2.73797,
                    0.65434,
                    -0.20735
                ],
                [
                    0.66039,
                    -1.99099,
                    -0.34936
                ],
                [
                    -0.18023,
                    -0.29863,
                    -1.73273
                ]
            ]
        ]
    },
    "band_gap": 4.8059,
    "is_direct": false,
    "formula": "Na2ZrO3"
}