{
    "mp_id": "mp-9986",
    "nelements": 3,
    "nsites": 12,
    "elements": [
        "Au",
        "Cs",
        "O"
    ],
    "structure": {
        "@module": "pymatgen.core.structure",
        "@class": "Structure",
        "charge": null,
        "lattice": {
            "matrix": [
                [
                    -5.03958157,
                    5.03958157,
                    3.07575518
                ],
                [
                    5.03958157,
                    -5.03958157,
                    3.07575518
                ],
                [
                    5.03958157,
                    5.03958157,
                    -3.07575518
                ]
            ],
            "a": 7.762411656738141,
            "b": 7.762411656738141,
            "c": 7.762411656738141,
            "alpha": 99.03302910542259,
            "beta": 99.03302910542259,
            "gamma": 133.31370252535044,
            "volume": 312.46452190937447
        },
        "sites": [
            {
                "species": [
                    {
                        "element": "Cs",
                        "occu": 1
                    }
                ],
                "abc": [
                    0.79984652,
                    0.5,
                    0.29984652
                ],
                "xyz": [
                    4.440892098500626e-16,
                    3.0222019920412726,
                    3.07575518
                ],
                "label": "Cs",
                "properties": {}
            },
            {
                "species": [
                    {
                        "element": "Cs",
                        "occu": 1
                    }
                ],
                "abc": [
                    0.5,
                    0.79984652,
                    0.29984652
                ],
                "xyz": [
                    3.0222019920412726,
                    4.440892098500626e-16,
                    3.07575518
                ],
                "label": "Cs",
                "properties": {}
            },
            {
                "species": [
                    {
                        "element": "Cs",
                        "occu": 1
                    }
                ],
                "abc": [
                    0.5,
                    0.20015348,
                    0.70015348
                ],
                "xyz": [
                    2.017379577958727,
                    5.03958157,
                    -4.440892098500626e-16
                ],
                "label": "Cs",
                "properties": {}
            },
            {
                "species": [
                    {
                        "element": "Cs",
                        "occu": 1
                    }
                ],
                "abc": [
                    0.20015348,
                    0.5,
                    0.70015348
                ],
                "xyz": [
                    5.03958157,
                    2.017379577958727,
                    -4.440892098500626e-16
                ],
                "label": "Cs",
                "properties": {}
            },
            {
                "species": [
                    {
                        "element": "Au",
                        "occu": 1
                    }
                ],
                "abc": [
                    0.14555275,
                    0.14555275,
                    0.29110451
                ],
                "xyz": [
                    1.4670449235398806,
                    1.4670449235398806,
                    3.044997628265378e-06
                ],
                "label": "Au",
                "properties": {}
            },
            {
                "species": [
                    {
                        "element": "Au",
                        "occu": 1
                    }
                ],
                "abc": [
                    0.85444725,
                    0.14555275,
                    0.0
                ],
                "xyz": [
                    -3.5725316572743653,
                    3.5725316572743653,
                    3.07575518
                ],
                "label": "Au",
                "properties": {}
            },
            {
                "species": [
                    {
                        "element": "Au",
                        "occu": 1
                    }
                ],
                "abc": [
                    0.14555275,
                    0.85444725,
                    0.0
                ],
                "xyz": [
                    3.5725316572743653,
                    -3.5725316572743653,
                    3.07575518
                ],
                "label": "Au",
                "properties": {}
            },
            {
                "species": [
                    {
                        "element": "Au",
                        "occu": 1
                    }
                ],
                "abc": [
                    0.85444725,
                    0.85444725,
                    0.70889549
                ],
                "xyz": [
                    3.572536646460119,
                    3.572536646460119,
                    3.0757521350023715
                ],
                "label": "Au",
                "properties": {}
            },
            {
                "species": [
                    {
                        "element": "O",
                        "occu": 1
                    }
                ],
                "abc": [
                    0.2829029,
                    0.0,
                    0.2829029
                ],
                "xyz": [
                    0.0,
                    2.851424481879106,
                    0.0
                ],
                "label": "O",
                "properties": {}
            },
            {
                "species": [
                    {
                        "element": "O",
                        "occu": 1
                    }
                ],
                "abc": [
                    0.0,
                    0.2829029,
                    0.2829029
                ],
                "xyz": [
                    2.851424481879106,
                    0.0,
                    0.0
                ],
                "label": "O",
                "properties": {}
            },
            {
                "species": [
                    {
                        "element": "O",
                        "occu": 1
                    }
                ],
                "abc": [
                    0.0,
                    0.7170971,
                    0.7170971
                ],
                "xyz": [
                    7.227738658120895,
                    0.0,
                    0.0
                ],
                "label": "O",
                "properties": {}
            },
            {
                "species": [
                    {
                        "element": "O",
                        "occu": 1
                    }
                ],
                "abc": [
                    0.7170971,
                    0.0,
                    0.7170971
                ],
                "xyz": [
                    0.0,
                    7.227738658120895,
                    0.0
                ],
                "label": "O",
                "properties": {}
            }
        ]
    },
    "spacegroup": {
        "source": "spglib",
        "symbol": "I4/mmm",
        "number": 139,
        "point_group": "4/mmm",
        "crystal_system": "tetragonal",
        "hall": "-I 4 2"
    },
    "dielectric": {
        "epsilon_ionic": [
            [
                3.77707808,
                -2.5e-07,
                0.0
            ],
            [
                -2.5e-07,
                3.77723653,
                0.0
            ],
            [
                0.0,
                0.0,
                3.65115953
            ]
        ],
        "epsilon_ionic_avg": 3.7351580466666667,
        "epsilon_ionic_eig": [
            3.7770780796055545,
            3.7772365303944455,
            3.65115953
        ],
        "epsilon_electronic": [
            [
                4.25818799,
                0.0,
                0.0
            ],
            [
                0.0,
                4.25818799,
                0.0
            ],
            [
                0.0,
                -0.0,
                3.38116792
            ]
        ],
        "epsilon_electronic_avg": 3.9658479666666664,
        "epsilon_electronic_eig": [
            4.25818799,
            4.25818799,
            3.38116792
        ]
    },
    "phonon": {
        "lowest_freq": -0.028339796323491227,
        "frequency": [
            -0.028339796323491227,
            -0.013838461820434647,
            -0.013838461820434647,
            0.8268122517763933,
            0.8268122517763933,
            1.3346779299994065,
            1.3374799317858022,
            1.6244991532188842,
            1.6244991532188842,
            1.6582927586117289,
            1.7702130931965827,
            2.040997939714754,
            2.074961632091533,
            2.1480703367053318,
            2.1704170686131405,
            2.1704170686131405,
            2.1744279387779684,
            2.1744279387779684,
            2.2401513651711475,
            2.450312049538546,
            2.6818576314346885,
            3.359574128217225,
            3.705768240433088,
            3.705768240433088,
            4.182723819682565,
            6.636469258501868,
            6.636469258501868,
            8.307249547563998,
            14.53300342938925,
            14.91815553492773,
            14.91815553492773,
            14.979718771033737,
            15.741206640016243,
            15.845328878891609,
            15.845328878891609,
            16.10555617640241
        ]
    },
    "born_effective_charge": {
        "avg_abs_trace": 1.0949075,
        "tensors": [
            [
                [
                    1.6377,
                    -0.0001,
                    -0.0
                ],
                [
                    0.0,
                    1.07649,
                    0.0
                ],
                [
                    -0.0,
                    -2e-05,
                    1.58132
                ]
            ],
            [
                [
                    1.07627,
                    -0.0,
                    -0.0
                ],
                [
                    -3e-05,
                    1.6375,
                    -0.0
                ],
                [
                    -2e-05,
                    -0.0,
                    1.58132
                ]
            ],
            [
                [
                    1.07627,
                    -0.0,
                    -0.0
                ],
                [
                    3e-05,
                    1.6375,
                    0.0
                ],
                [
                    2e-05,
                    -0.0,
                    1.58132
                ]
            ],
            [
                [
                    1.6377,
                    0.0001,
                    -0.0
                ],
                [
                    0.0,
                    1.0765,
                    0.0
                ],
                [
                    -0.0,
                    2e-05,
                    1.58132
                ]
            ],
            [
                [
                    0.62255,
                    -1.1898,
                    0.0
                ],
                [
                    -1.18958,
                    0.62274,
                    -0.0
                ],
                [
                    1e-05,
                    1e-05,
                    -0.61359
                ]
            ],
            [
                [
                    0.62255,
                    1.1898,
                    -0.0
                ],
                [
                    1.18987,
                    0.62263,
                    -0.0
                ],
                [
                    1e-05,
                    -1e-05,
                    -0.61359
                ]
            ],
            [
                [
                    0.62282,
                    1.18964,
                    -0.0
                ],
                [
                    1.18958,
                    0.62274,
                    0.0
                ],
                [
                    -1e-05,
                    1e-05,
                    -0.61359
                ]
            ],
            [
                [
                    0.62282,
                    -1.18964,
                    0.0
                ],
                [
                    -1.18987,
                    0.62263,
                    0.0
                ],
                [
                    -1e-05,
                    -1e-05,
                    -0.61359
                ]
            ],
            [
                [
                    -1.9311,
                    -0.00075,
                    0.0
                ],
                [
                    0.0,
                    -2.02785,
                    -0.0
                ],
                [
                    -0.0,
                    -0.0,
                    -0.96773
                ]
            ],
            [
                [
                    -2.02772,
                    -0.0,
                    -0.0
                ],
                [
                    -0.00029,
                    -1.9311,
                    -0.0
                ],
                [
                    -0.0,
                    -0.0,
                    -0.96773
                ]
            ],
            [
                [
                    -2.02878,
                    -0.0,
                    0.0
                ],
                [
                    0.00029,
                    -1.9311,
                    -0.0
                ],
                [
                    0.0,
                    0.0,
                    -0.96773
                ]
            ],
            [
                [
                    -1.9311,
                    0.00075,
                    -0.0
                ],
                [
                    0.0,
                    -2.02867,
                    -0.0
                ],
                [
                    0.0,
                    0.0,
                    -0.96773
                ]
            ]
        ]
    },
    "band_gap": 1.4453999999999998,
    "is_direct": true,
    "formula": "CsAuO"
}