{
    "mp_id": "mp-9870",
    "nelements": 4,
    "nsites": 20,
    "elements": [
        "B",
        "K",
        "O",
        "Ta"
    ],
    "structure": {
        "@module": "pymatgen.core.structure",
        "@class": "Structure",
        "charge": null,
        "lattice": {
            "matrix": [
                [
                    8.8294974,
                    0.0,
                    0.0
                ],
                [
                    -4.4147487,
                    7.64656902,
                    0.0
                ],
                [
                    0.0,
                    0.0,
                    3.93070434
                ]
            ],
            "a": 8.8294974,
            "b": 8.82949737311108,
            "c": 3.93070434,
            "alpha": 90.0,
            "beta": 90.0,
            "gamma": 120.00000010073941,
            "volume": 265.3829236039361
        },
        "sites": [
            {
                "species": [
                    {
                        "element": "K",
                        "occu": 1
                    }
                ],
                "abc": [
                    0.40345611,
                    0.0,
                    0.5
                ],
                "xyz": [
                    3.5623146742591136,
                    0.0,
                    1.96535217
                ],
                "label": "K",
                "properties": {}
            },
            {
                "species": [
                    {
                        "element": "K",
                        "occu": 1
                    }
                ],
                "abc": [
                    0.59654389,
                    0.59654389,
                    0.5
                ],
                "xyz": [
                    2.6335913628704426,
                    4.561514028344288,
                    1.96535217
                ],
                "label": "K",
                "properties": {}
            },
            {
                "species": [
                    {
                        "element": "K",
                        "occu": 1
                    }
                ],
                "abc": [
                    0.0,
                    0.40345611,
                    0.5
                ],
                "xyz": [
                    -1.7811573371295568,
                    3.085054991655712,
                    1.96535217
                ],
                "label": "K",
                "properties": {}
            },
            {
                "species": [
                    {
                        "element": "Ta",
                        "occu": 1
                    }
                ],
                "abc": [
                    0.75302447,
                    0.0,
                    0.0
                ],
                "xyz": [
                    6.648827600001377,
                    0.0,
                    0.0
                ],
                "label": "Ta",
                "properties": {}
            },
            {
                "species": [
                    {
                        "element": "Ta",
                        "occu": 1
                    }
                ],
                "abc": [
                    0.24697553,
                    0.24697553,
                    0.0
                ],
                "xyz": [
                    1.090334899999311,
                    1.8885154363960805,
                    0.0
                ],
                "label": "Ta",
                "properties": {}
            },
            {
                "species": [
                    {
                        "element": "Ta",
                        "occu": 1
                    }
                ],
                "abc": [
                    0.0,
                    0.75302447,
                    0.0
                ],
                "xyz": [
                    -3.3244138000006886,
                    5.758053583603919,
                    0.0
                ],
                "label": "Ta",
                "properties": {}
            },
            {
                "species": [
                    {
                        "element": "B",
                        "occu": 1
                    }
                ],
                "abc": [
                    0.333333,
                    0.666667,
                    0.0
                ],
                "xyz": [
                    -4.414748699943516e-06,
                    5.09771522885634,
                    0.0
                ],
                "label": "B",
                "properties": {}
            },
            {
                "species": [
                    {
                        "element": "B",
                        "occu": 1
                    }
                ],
                "abc": [
                    0.666667,
                    0.333333,
                    0.0
                ],
                "xyz": [
                    4.4147531147487,
                    2.54885379114366,
                    0.0
                ],
                "label": "B",
                "properties": {}
            },
            {
                "species": [
                    {
                        "element": "O",
                        "occu": 1
                    }
                ],
                "abc": [
                    0.81358882,
                    0.49601692,
                    0.0
                ],
                "xyz": [
                    4.993790318111063,
                    3.7928276138678183,
                    0.0
                ],
                "label": "O",
                "properties": {}
            },
            {
                "species": [
                    {
                        "element": "O",
                        "occu": 1
                    }
                ],
                "abc": [
                    0.49601692,
                    0.81358882,
                    0.0
                ],
                "xyz": [
                    0.7877899200664737,
                    6.221163066030357,
                    0.0
                ],
                "label": "O",
                "properties": {}
            },
            {
                "species": [
                    {
                        "element": "O",
                        "occu": 1
                    }
                ],
                "abc": [
                    0.18641118,
                    0.6824281,
                    0.0
                ],
                "xyz": [
                    -1.3668315381775378,
                    5.218233567837462,
                    0.0
                ],
                "label": "O",
                "properties": {}
            },
            {
                "species": [
                    {
                        "element": "O",
                        "occu": 1
                    }
                ],
                "abc": [
                    0.3175719,
                    0.50398308,
                    0.0
                ],
                "xyz": [
                    0.5790416181110638,
                    3.853741406132182,
                    0.0
                ],
                "label": "O",
                "properties": {}
            },
            {
                "species": [
                    {
                        "element": "O",
                        "occu": 1
                    }
                ],
                "abc": [
                    0.50398308,
                    0.3175719,
                    0.0
                ],
                "xyz": [
                    3.047917161822462,
                    2.428335452162538,
                    0.0
                ],
                "label": "O",
                "properties": {}
            },
            {
                "species": [
                    {
                        "element": "O",
                        "occu": 1
                    }
                ],
                "abc": [
                    0.6824281,
                    0.18641118,
                    0.0
                ],
                "xyz": [
                    5.202538620066473,
                    1.4254059539696438,
                    0.0
                ],
                "label": "O",
                "properties": {}
            },
            {
                "species": [
                    {
                        "element": "O",
                        "occu": 1
                    }
                ],
                "abc": [
                    0.73942848,
                    0.0,
                    0.5
                ],
                "xyz": [
                    6.5287818416459515,
                    0.0,
                    1.96535217
                ],
                "label": "O",
                "properties": {}
            },
            {
                "species": [
                    {
                        "element": "O",
                        "occu": 1
                    }
                ],
                "abc": [
                    0.26057152,
                    0.26057152,
                    0.5
                ],
                "xyz": [
                    1.1503577791770239,
                    1.9924781123263104,
                    1.96535217
                ],
                "label": "O",
                "properties": {}
            },
            {
                "species": [
                    {
                        "element": "O",
                        "occu": 1
                    }
                ],
                "abc": [
                    0.0,
                    0.73942848,
                    0.5
                ],
                "xyz": [
                    -3.2643909208229758,
                    5.65409090767369,
                    1.96535217
                ],
                "label": "O",
                "properties": {}
            },
            {
                "species": [
                    {
                        "element": "O",
                        "occu": 1
                    }
                ],
                "abc": [
                    0.18194666,
                    0.0,
                    0.0
                ],
                "xyz": [
                    1.606497561408684,
                    0.0,
                    0.0
                ],
                "label": "O",
                "properties": {}
            },
            {
                "species": [
                    {
                        "element": "O",
                        "occu": 1
                    }
                ],
                "abc": [
                    0.81805334,
                    0.81805334,
                    0.0
                ],
                "xyz": [
                    3.6114999192956576,
                    6.2553013263515265,
                    0.0
                ],
                "label": "O",
                "properties": {}
            },
            {
                "species": [
                    {
                        "element": "O",
                        "occu": 1
                    }
                ],
                "abc": [
                    0.0,
                    0.18194666,
                    0.0
                ],
                "xyz": [
                    -0.803248780704342,
                    1.3912676936484734,
                    0.0
                ],
                "label": "O",
                "properties": {}
            }
        ]
    },
    "spacegroup": {
        "source": "spglib",
        "symbol": "P-62m",
        "number": 189,
        "point_group": "-6m2",
        "crystal_system": "hexagonal",
        "hall": "P -6 -2"
    },
    "dielectric": {
        "epsilon_ionic": [
            [
                12.50505822,
                -4.79e-05,
                -4e-08
            ],
            [
                -4.79e-05,
                12.50496935,
                -2e-08
            ],
            [
                -4e-08,
                -2e-08,
                23.67863747
            ]
        ],
        "epsilon_ionic_avg": 16.229555013333336,
        "epsilon_ionic_eig": [
            12.505079121660653,
            12.50494844833935,
            23.67863747
        ],
        "epsilon_electronic": [
            [
                3.94355723,
                -2.6e-07,
                -0.0
            ],
            [
                -2.6e-07,
                3.94355754,
                0.0
            ],
            [
                -0.0,
                0.0,
                4.12009225
            ]
        ],
        "epsilon_electronic_avg": 4.00240234,
        "epsilon_electronic_eig": [
            3.9435570823037827,
            3.9435576876962175,
            4.12009225
        ]
    },
    "phonon": {
        "lowest_freq": -0.1198254148734322,
        "frequency": [
            -0.1198254148734322,
            -0.1198254057970553,
            -0.03116100347626564,
            2.0971853621345375,
            2.0971853621345375,
            2.373239937040425,
            2.74806652925402,
            2.7480666270828524,
            3.596606251247036,
            3.596606251247036,
            3.86215482500986,
            3.9280736341020233,
            3.928073677655201,
            4.013201680874244,
            4.21954035509615,
            4.584618871366193,
            4.58461898864536,
            4.725461821066885,
            5.1007898777831,
            5.415559198617197,
            5.415559198617197,
            5.870966187816091,
            6.023648623539131,
            6.0881724824866605,
            6.0881724824866605,
            6.804864010616456,
            7.534275343764235,
            7.534275700587057,
            8.342681592146251,
            8.342681958335652,
            8.680331548458051,
            8.750630299383388,
            8.795896633134907,
            8.795896633134907,
            8.950295590704942,
            8.95029591838144,
            9.2960921264728,
            9.296092271071272,
            10.741809523580029,
            11.795350135270331,
            11.795350197430452,
            12.713846965658039,
            16.8830462309182,
            16.8830462309182,
            17.08426390672611,
            18.520095516298685,
            18.520095780228353,
            18.77831382536385,
            18.77831402058915,
            19.232002214565547,
            20.01506958857266,
            20.037891029320782,
            23.16460423632442,
            23.164604869359525,
            31.482180231852986,
            31.89940413059439,
            36.72316131392031,
            36.72316204599274,
            39.44205498112041,
            39.44205566272825
        ]
    },
    "born_effective_charge": {
        "avg_abs_trace": 3.1827565,
        "tensors": [
            [
                [
                    1.44292,
                    0.0,
                    0.0
                ],
                [
                    0.0,
                    0.98878,
                    0.0
                ],
                [
                    5e-05,
                    0.0,
                    1.21232
                ]
            ],
            [
                [
                    1.1023,
                    0.19661,
                    0.0
                ],
                [
                    0.19661,
                    1.32928,
                    0.0
                ],
                [
                    -2e-05,
                    -4e-05,
                    1.21232
                ]
            ],
            [
                [
                    1.1023,
                    -0.19661,
                    0.0
                ],
                [
                    -0.19669,
                    1.32935,
                    0.0
                ],
                [
                    -2e-05,
                    4e-05,
                    1.21232
                ]
            ],
            [
                [
                    7.47699,
                    0.0,
                    0.0
                ],
                [
                    1e-05,
                    6.43418,
                    0.0
                ],
                [
                    -0.00063,
                    0.0,
                    8.56528
                ]
            ],
            [
                [
                    6.69465,
                    0.45157,
                    0.0
                ],
                [
                    0.45167,
                    7.21617,
                    0.0
                ],
                [
                    0.00031,
                    0.00054,
                    8.56528
                ]
            ],
            [
                [
                    6.69465,
                    -0.45157,
                    0.0
                ],
                [
                    -0.45147,
                    7.21641,
                    0.0
                ],
                [
                    0.00031,
                    -0.00054,
                    8.56528
                ]
            ],
            [
                [
                    4.08873,
                    0.48599,
                    0.0
                ],
                [
                    -0.48609,
                    4.08864,
                    0.0
                ],
                [
                    -0.0,
                    -0.0,
                    0.3837
                ]
            ],
            [
                [
                    4.08873,
                    -0.48599,
                    0.0
                ],
                [
                    0.48584,
                    4.08842,
                    0.0
                ],
                [
                    -0.0,
                    0.0,
                    0.3837
                ]
            ],
            [
                [
                    -1.74621,
                    -0.68461,
                    0.0
                ],
                [
                    -1.07218,
                    -4.586,
                    0.0
                ],
                [
                    -6e-05,
                    -0.00032,
                    -1.08018
                ]
            ],
            [
                [
                    -3.11544,
                    -1.86268,
                    0.0
                ],
                [
                    -1.47486,
                    -3.21672,
                    0.0
                ],
                [
                    -0.00024,
                    -0.00022,
                    -1.08018
                ]
            ],
            [
                [
                    -4.6368,
                    0.59673,
                    0.0
                ],
                [
                    0.98427,
                    -1.6955,
                    0.0
                ],
                [
                    0.00031,
                    -0.0001,
                    -1.08018
                ]
            ],
            [
                [
                    -1.74621,
                    0.68461,
                    0.0
                ],
                [
                    1.07219,
                    -4.58599,
                    0.0
                ],
                [
                    -6e-05,
                    0.00032,
                    -1.08018
                ]
            ],
            [
                [
                    -4.6368,
                    -0.59673,
                    0.0
                ],
                [
                    -0.98399,
                    -1.69527,
                    0.0
                ],
                [
                    0.00031,
                    0.0001,
                    -1.08018
                ]
            ],
            [
                [
                    -3.11544,
                    1.86268,
                    0.0
                ],
                [
                    1.47504,
                    -3.21665,
                    0.0
                ],
                [
                    -0.00024,
                    0.00022,
                    -1.08018
                ]
            ],
            [
                [
                    -1.38217,
                    0.0,
                    0.0
                ],
                [
                    1e-05,
                    -1.27287,
                    0.0
                ],
                [
                    0.00116,
                    0.0,
                    -6.5116
                ]
            ],
            [
                [
                    -1.30013,
                    -0.0472,
                    0.0
                ],
                [
                    -0.04722,
                    -1.35469,
                    0.0
                ],
                [
                    -0.00058,
                    -0.00101,
                    -6.5116
                ]
            ],
            [
                [
                    -1.30013,
                    0.0472,
                    0.0
                ],
                [
                    0.04719,
                    -1.35486,
                    0.0
                ],
                [
                    -0.00058,
                    0.00101,
                    -6.5116
                ]
            ],
            [
                [
                    -1.4505,
                    0.0,
                    0.0
                ],
                [
                    -5e-05,
                    -5.02443,
                    0.0
                ],
                [
                    0.00017,
                    0.0,
                    -1.36144
                ]
            ],
            [
                [
                    -4.13072,
                    1.54738,
                    0.0
                ],
                [
                    1.54745,
                    -2.3441,
                    0.0
                ],
                [
                    -9e-05,
                    -0.00015,
                    -1.36144
                ]
            ],
            [
                [
                    -4.13072,
                    -1.54738,
                    0.0
                ],
                [
                    -1.54774,
                    -2.34414,
                    0.0
                ],
                [
                    -9e-05,
                    0.00015,
                    -1.36144
                ]
            ]
        ]
    },
    "band_gap": 3.0308,
    "is_direct": false,
    "formula": "K3Ta3(BO6)2"
}