{
    "mp_id": "mp-975115",
    "nelements": 3,
    "nsites": 12,
    "elements": [
        "O",
        "Rb",
        "Tc"
    ],
    "structure": {
        "@module": "pymatgen.core.structure",
        "@class": "Structure",
        "charge": null,
        "lattice": {
            "matrix": [
                [
                    -2.89775646,
                    2.89775649,
                    6.57525927
                ],
                [
                    2.89775646,
                    -2.89775649,
                    6.57525927
                ],
                [
                    2.89775649,
                    2.89775646,
                    -6.57525927
                ]
            ],
            "a": 7.747775141582891,
            "b": 7.747775141582891,
            "c": 7.747775141582891,
            "alpha": 136.07354705873294,
            "beta": 136.07354705873294,
            "gamma": 63.86665080786274,
            "volume": 220.84961342811
        },
        "sites": [
            {
                "species": [
                    {
                        "element": "Rb",
                        "occu": 1
                    }
                ],
                "abc": [
                    0.75,
                    0.25,
                    0.5
                ],
                "xyz": [
                    1.4999999908837935e-08,
                    2.8977564750000004,
                    3.287629635
                ],
                "label": "Rb",
                "properties": {}
            },
            {
                "species": [
                    {
                        "element": "Rb",
                        "occu": 1
                    }
                ],
                "abc": [
                    0.0,
                    0.0,
                    0.0
                ],
                "xyz": [
                    0.0,
                    0.0,
                    0.0
                ],
                "label": "Rb",
                "properties": {}
            },
            {
                "species": [
                    {
                        "element": "Tc",
                        "occu": 1
                    }
                ],
                "abc": [
                    0.5,
                    0.5,
                    0.0
                ],
                "xyz": [
                    0.0,
                    0.0,
                    6.57525927
                ],
                "label": "Tc",
                "properties": {}
            },
            {
                "species": [
                    {
                        "element": "Tc",
                        "occu": 1
                    }
                ],
                "abc": [
                    0.25,
                    0.75,
                    0.5
                ],
                "xyz": [
                    2.897756475,
                    -1.500000013088254e-08,
                    3.287629635
                ],
                "label": "Tc",
                "properties": {}
            },
            {
                "species": [
                    {
                        "element": "O",
                        "occu": 1
                    }
                ],
                "abc": [
                    0.6818201,
                    0.78863161,
                    0.32282031
                ],
                "xyz": [
                    1.2449683915111667,
                    0.6259408924125027,
                    7.545974001393079
                ],
                "label": "O",
                "properties": {}
            },
            {
                "species": [
                    {
                        "element": "O",
                        "occu": 1
                    }
                ],
                "abc": [
                    0.10899979,
                    0.9318201,
                    0.3931885
                ],
                "xyz": [
                    3.523697396390068,
                    -1.2449683775336018,
                    4.258344300640486
                ],
                "label": "O",
                "properties": {}
            },
            {
                "species": [
                    {
                        "element": "O",
                        "occu": 1
                    }
                ],
                "abc": [
                    0.21136839,
                    0.53418871,
                    0.8931885
                ],
                "xyz": [
                    3.5236974403676324,
                    1.6527880684888336,
                    -0.9707147313930786
                ],
                "label": "O",
                "properties": {}
            },
            {
                "species": [
                    {
                        "element": "O",
                        "occu": 1
                    }
                ],
                "abc": [
                    0.46581129,
                    0.35899979,
                    0.67717969
                ],
                "xyz": [
                    1.6527881274663982,
                    2.271815538609933,
                    0.970714665640485
                ],
                "label": "O",
                "properties": {}
            },
            {
                "species": [
                    {
                        "element": "O",
                        "occu": 1
                    }
                ],
                "abc": [
                    0.28418871,
                    0.89100021,
                    0.82282031
                ],
                "xyz": [
                    4.142724837533601,
                    0.6259409063900678,
                    2.316914969359514
                ],
                "label": "O",
                "properties": {}
            },
            {
                "species": [
                    {
                        "element": "O",
                        "occu": 1
                    }
                ],
                "abc": [
                    0.53863161,
                    0.71581129,
                    0.6068115
                ],
                "xyz": [
                    2.2718155246323675,
                    1.2449683765111668,
                    4.258344366393079
                ],
                "label": "O",
                "properties": {}
            },
            {
                "species": [
                    {
                        "element": "O",
                        "occu": 1
                    }
                ],
                "abc": [
                    0.64100021,
                    0.3181799,
                    0.1068115
                ],
                "xyz": [
                    -0.6259409213900673,
                    1.2449683625336017,
                    5.604544604359515
                ],
                "label": "O",
                "properties": {}
            },
            {
                "species": [
                    {
                        "element": "O",
                        "occu": 1
                    }
                ],
                "abc": [
                    0.0681799,
                    0.46136839,
                    0.17717969
                ],
                "xyz": [
                    1.6527880834888338,
                    -0.6259409074125029,
                    2.3169149036069223
                ],
                "label": "O",
                "properties": {}
            }
        ]
    },
    "spacegroup": {
        "source": "spglib",
        "symbol": "I4_1/a",
        "number": 88,
        "point_group": "4/m",
        "crystal_system": "tetragonal",
        "hall": "I 4bw -1bw"
    },
    "dielectric": {
        "epsilon_ionic": [
            [
                3.26453464,
                -0.00050966,
                2e-08
            ],
            [
                -0.00050966,
                3.26347344,
                0.0
            ],
            [
                2e-08,
                0.0,
                2.19867363
            ]
        ],
        "epsilon_ionic_avg": 2.9088939033333343,
        "epsilon_ionic_eig": [
            3.26473976391262,
            3.2632683160873834,
            2.19867363
        ],
        "epsilon_electronic": [
            [
                2.6808211,
                -6.3e-07,
                0.0
            ],
            [
                6.3e-07,
                2.6808211,
                0.0
            ],
            [
                0.0,
                -0.0,
                2.76281929
            ]
        ],
        "epsilon_electronic_avg": 2.70815383,
        "epsilon_electronic_eig": [
            2.6808211,
            2.6808211,
            2.76281929
        ]
    },
    "phonon": {
        "lowest_freq": -0.057222394025854356,
        "frequency": [
            -0.057222394025854356,
            -0.057222394025854356,
            -0.01767917149698023,
            1.5133791439562858,
            1.6971626703646394,
            1.6971626703646394,
            1.9688655452884545,
            1.9688655452884545,
            2.2402482491794466,
            2.2402482491794466,
            2.728060459134648,
            2.8423067505438224,
            2.8423067505438224,
            2.923239446146495,
            2.966546474503171,
            3.60387850532551,
            3.60387850532551,
            3.813227867915654,
            9.517646303099422,
            9.852885503487979,
            9.934406756533594,
            9.954527175704975,
            9.954527175704975,
            10.235322024459974,
            10.310944742976439,
            10.487623478496916,
            10.595581327754676,
            10.595581327754676,
            25.161751294638105,
            25.18740014943297,
            25.18740014943297,
            25.542483473736624,
            25.542483473736624,
            26.15596535555581,
            26.284591443433126,
            26.31263904334726
        ]
    },
    "born_effective_charge": {
        "avg_abs_trace": 1.4947066666666666,
        "tensors": [
            [
                [
                    1.43574,
                    -0.04929,
                    0.00013
                ],
                [
                    0.04918,
                    1.436,
                    0.00012
                ],
                [
                    -0.0,
                    -0.0,
                    1.35479
                ]
            ],
            [
                [
                    1.43574,
                    -0.04929,
                    -0.00013
                ],
                [
                    0.04918,
                    1.436,
                    -0.00012
                ],
                [
                    -0.0,
                    -0.0,
                    1.35479
                ]
            ],
            [
                [
                    2.94622,
                    0.11281,
                    -0.0016
                ],
                [
                    -0.11053,
                    2.94263,
                    -0.00134
                ],
                [
                    -0.0,
                    -0.0,
                    3.33697
                ]
            ],
            [
                [
                    2.94622,
                    0.11281,
                    0.0016
                ],
                [
                    -0.11053,
                    2.94263,
                    0.00134
                ],
                [
                    -0.0,
                    -0.0,
                    3.33697
                ]
            ],
            [
                [
                    -1.41936,
                    -0.52308,
                    -0.69998
                ],
                [
                    -0.49104,
                    -0.77198,
                    -0.39782
                ],
                [
                    -0.765,
                    -0.37881,
                    -1.17299
                ]
            ],
            [
                [
                    -0.77163,
                    0.49169,
                    -0.398
                ],
                [
                    0.52195,
                    -1.41693,
                    0.69855
                ],
                [
                    -0.37881,
                    0.765,
                    -1.17299
                ]
            ],
            [
                [
                    -0.77163,
                    0.49169,
                    0.398
                ],
                [
                    0.52195,
                    -1.41693,
                    -0.69855
                ],
                [
                    0.3788,
                    -0.76508,
                    -1.1729
                ]
            ],
            [
                [
                    -1.41977,
                    -0.52299,
                    0.70016
                ],
                [
                    -0.49179,
                    -0.7722,
                    0.39796
                ],
                [
                    0.765,
                    0.37881,
                    -1.17299
                ]
            ],
            [
                [
                    -1.41936,
                    -0.52308,
                    0.69998
                ],
                [
                    -0.49104,
                    -0.77198,
                    0.39782
                ],
                [
                    0.76508,
                    0.3788,
                    -1.1729
                ]
            ],
            [
                [
                    -0.7712,
                    0.49086,
                    0.39742
                ],
                [
                    0.52223,
                    -1.41752,
                    -0.69828
                ],
                [
                    0.37881,
                    -0.765,
                    -1.17299
                ]
            ],
            [
                [
                    -0.7712,
                    0.49086,
                    -0.39742
                ],
                [
                    0.52223,
                    -1.41752,
                    0.69828
                ],
                [
                    -0.3788,
                    0.76508,
                    -1.1729
                ]
            ],
            [
                [
                    -1.41977,
                    -0.52299,
                    -0.70016
                ],
                [
                    -0.49179,
                    -0.7722,
                    -0.39796
                ],
                [
                    -0.76508,
                    -0.3788,
                    -1.1729
                ]
            ]
        ]
    },
    "band_gap": 3.8037,
    "is_direct": false,
    "formula": "RbTcO4"
}