{
    "mp_id": "mp-973185",
    "nelements": 3,
    "nsites": 4,
    "elements": [
        "Ag",
        "O",
        "Sc"
    ],
    "structure": {
        "@module": "pymatgen.core.structure",
        "@class": "Structure",
        "charge": null,
        "lattice": {
            "matrix": [
                [
                    1.5883906,
                    0.91705735,
                    6.12881378
                ],
                [
                    -1.5883906,
                    0.91705735,
                    6.12881378
                ],
                [
                    0.0,
                    -1.8341147,
                    6.12881378
                ]
            ],
            "a": 6.397369555627943,
            "b": 6.397369555627943,
            "c": 6.397369387699445,
            "alpha": 28.75245628405462,
            "beta": 28.75245628405462,
            "gamma": 28.752465278453847,
            "volume": 53.56504578192107
        },
        "sites": [
            {
                "species": [
                    {
                        "element": "Sc",
                        "occu": 1
                    }
                ],
                "abc": [
                    0.5,
                    0.5,
                    0.5
                ],
                "xyz": [
                    0.0,
                    0.0,
                    9.193220669999999
                ],
                "label": "Sc",
                "properties": {}
            },
            {
                "species": [
                    {
                        "element": "Ag",
                        "occu": 1
                    }
                ],
                "abc": [
                    0.0,
                    0.0,
                    0.0
                ],
                "xyz": [
                    0.0,
                    0.0,
                    0.0
                ],
                "label": "Ag",
                "properties": {}
            },
            {
                "species": [
                    {
                        "element": "O",
                        "occu": 1
                    }
                ],
                "abc": [
                    0.11106668,
                    0.11106668,
                    0.11106668
                ],
                "xyz": [
                    0.0,
                    0.0,
                    2.042120996648551
                ],
                "label": "O",
                "properties": {}
            },
            {
                "species": [
                    {
                        "element": "O",
                        "occu": 1
                    }
                ],
                "abc": [
                    0.88893332,
                    0.88893332,
                    0.88893332
                ],
                "xyz": [
                    0.0,
                    0.0,
                    16.34432034335145
                ],
                "label": "O",
                "properties": {}
            }
        ]
    },
    "spacegroup": {
        "source": "spglib",
        "symbol": "R-3m",
        "number": 166,
        "point_group": "-3m",
        "crystal_system": "trigonal",
        "hall": "-R 3 2\""
    },
    "dielectric": {
        "epsilon_ionic": [
            [
                8.83683275,
                1e-08,
                0.0
            ],
            [
                1e-08,
                8.83693606,
                1.13e-06
            ],
            [
                0.0,
                1.13e-06,
                2.94791703
            ]
        ],
        "epsilon_ionic_avg": 6.873895279999999,
        "epsilon_ionic_eig": [
            8.836832749999031,
            8.836936060001184,
            2.9479170299997834
        ],
        "epsilon_electronic": [
            [
                5.51460089,
                0.0,
                0.0
            ],
            [
                0.0,
                5.51460417,
                2.9e-07
            ],
            [
                0.0,
                2.9e-07,
                5.36385668
            ]
        ],
        "epsilon_electronic_avg": 5.464353913333333,
        "epsilon_electronic_eig": [
            5.363856679999442,
            5.514604170000558,
            5.51460089
        ]
    },
    "phonon": {
        "lowest_freq": -0.008507674950358238,
        "frequency": [
            -0.008507674950358238,
            -0.00850767242238028,
            -0.00606144305266297,
            2.6476761728889926,
            2.6476769621172354,
            9.322797937317443,
            10.743189721754915,
            10.743192918032207,
            11.907138894766058,
            11.907142425153733,
            16.666224655863292,
            19.147453151793403
        ]
    },
    "born_effective_charge": {
        "avg_abs_trace": 2.4758958333333334,
        "tensors": [
            [
                [
                    4.46298,
                    0.0,
                    -0.0
                ],
                [
                    0.0,
                    4.46299,
                    -0.0
                ],
                [
                    0.0,
                    0.0,
                    3.10204
                ]
            ],
            [
                [
                    0.55373,
                    -0.0,
                    -0.0
                ],
                [
                    0.0,
                    0.55376,
                    0.0
                ],
                [
                    -0.0,
                    0.0,
                    1.71988
                ]
            ],
            [
                [
                    -2.50835,
                    0.00013,
                    -4e-05
                ],
                [
                    0.0,
                    -2.5083,
                    -0.0
                ],
                [
                    -0.0,
                    -0.0,
                    -2.41096
                ]
            ],
            [
                [
                    -2.50835,
                    -0.00013,
                    4e-05
                ],
                [
                    0.0,
                    -2.50845,
                    -0.0
                ],
                [
                    -0.0,
                    -0.0,
                    -2.41096
                ]
            ]
        ]
    },
    "band_gap": 2.561,
    "is_direct": false,
    "formula": "ScAgO2"
}