{
    "mp_id": "mp-9631",
    "nelements": 3,
    "nsites": 8,
    "elements": [
        "Ag",
        "Al",
        "O"
    ],
    "structure": {
        "@module": "pymatgen.core.structure",
        "@class": "Structure",
        "charge": null,
        "lattice": {
            "matrix": [
                [
                    2.87518967,
                    0.0,
                    0.0
                ],
                [
                    -1.43759483,
                    2.48998678,
                    0.0
                ],
                [
                    0.0,
                    0.0,
                    12.13333747
                ]
            ],
            "a": 2.87518967,
            "b": 2.8751892215674255,
            "c": 12.13333747,
            "alpha": 90.0,
            "beta": 90.0,
            "gamma": 120.00000504427086,
            "volume": 86.8647987371087
        },
        "sites": [
            {
                "species": [
                    {
                        "element": "Al",
                        "occu": 1
                    }
                ],
                "abc": [
                    0.0,
                    0.0,
                    0.0
                ],
                "xyz": [
                    0.0,
                    0.0,
                    0.0
                ],
                "label": "Al",
                "properties": {}
            },
            {
                "species": [
                    {
                        "element": "Al",
                        "occu": 1
                    }
                ],
                "abc": [
                    0.0,
                    0.0,
                    0.5
                ],
                "xyz": [
                    0.0,
                    0.0,
                    6.066668735
                ],
                "label": "Al",
                "properties": {}
            },
            {
                "species": [
                    {
                        "element": "Ag",
                        "occu": 1
                    }
                ],
                "abc": [
                    0.666667,
                    0.333333,
                    0.75
                ],
                "xyz": [
                    1.4375962742615,
                    0.82999476333774,
                    9.1000031025
                ],
                "label": "Ag",
                "properties": {}
            },
            {
                "species": [
                    {
                        "element": "Ag",
                        "occu": 1
                    }
                ],
                "abc": [
                    0.333333,
                    0.666667,
                    0.25
                ],
                "xyz": [
                    -1.434261500121714e-06,
                    1.6599920166622602,
                    3.0333343675
                ],
                "label": "Ag",
                "properties": {}
            },
            {
                "species": [
                    {
                        "element": "O",
                        "occu": 1
                    }
                ],
                "abc": [
                    0.333333,
                    0.666667,
                    0.42083349
                ],
                "xyz": [
                    -1.434261500121714e-06,
                    1.6599920166622602,
                    5.10611475284787
                ],
                "label": "O",
                "properties": {}
            },
            {
                "species": [
                    {
                        "element": "O",
                        "occu": 1
                    }
                ],
                "abc": [
                    0.666667,
                    0.333333,
                    0.92083349
                ],
                "xyz": [
                    1.4375962742615,
                    0.82999476333774,
                    11.172783487847871
                ],
                "label": "O",
                "properties": {}
            },
            {
                "species": [
                    {
                        "element": "O",
                        "occu": 1
                    }
                ],
                "abc": [
                    0.333333,
                    0.666667,
                    0.07916651
                ],
                "xyz": [
                    -1.434261500121714e-06,
                    1.6599920166622602,
                    0.9605539821521297
                ],
                "label": "O",
                "properties": {}
            },
            {
                "species": [
                    {
                        "element": "O",
                        "occu": 1
                    }
                ],
                "abc": [
                    0.666667,
                    0.333333,
                    0.57916651
                ],
                "xyz": [
                    1.4375962742615,
                    0.82999476333774,
                    7.02722271715213
                ],
                "label": "O",
                "properties": {}
            }
        ]
    },
    "spacegroup": {
        "source": "spglib",
        "symbol": "P6_3/mmc",
        "number": 194,
        "point_group": "6/mmm",
        "crystal_system": "hexagonal",
        "hall": "-P 6c 2c"
    },
    "dielectric": {
        "epsilon_ionic": [
            [
                5.91798681,
                1.9e-07,
                0.0
            ],
            [
                1.9e-07,
                5.91830398,
                1e-08
            ],
            [
                0.0,
                1e-08,
                2.79413968
            ]
        ],
        "epsilon_ionic_avg": 4.876810156666668,
        "epsilon_ionic_eig": [
            5.917986809886183,
            5.918303980113819,
            2.79413968
        ],
        "epsilon_electronic": [
            [
                5.07513598,
                -1.02e-06,
                0.0
            ],
            [
                -1.02e-06,
                5.07513715,
                -0.0
            ],
            [
                0.0,
                -0.0,
                5.23575937
            ]
        ],
        "epsilon_electronic_avg": 5.128677499999999,
        "epsilon_electronic_eig": [
            5.075135389149244,
            5.075137740850756,
            5.23575937
        ]
    },
    "phonon": {
        "lowest_freq": -0.050702855747635306,
        "frequency": [
            -0.050702855747635306,
            -0.05070284393803636,
            -0.013690371918140454,
            0.7330481329916771,
            0.7330483013599556,
            1.4781119893518808,
            1.4781123307916475,
            2.583908655338259,
            2.5839092512264483,
            5.8111831273955366,
            8.735642792534424,
            11.221596883912277,
            12.022034964817312,
            12.022037739772982,
            12.250586772559856,
            12.250589595495217,
            14.360433663305814,
            14.36043698200922,
            14.487630011046152,
            14.487633368090782,
            19.58640475520961,
            20.63406342962363,
            21.599575915677725,
            23.50182086885516
        ]
    },
    "born_effective_charge": {
        "avg_abs_trace": 2.0686958333333334,
        "tensors": [
            [
                [
                    3.0739,
                    0.0,
                    0.0
                ],
                [
                    -0.0,
                    3.07398,
                    0.00013
                ],
                [
                    -0.0,
                    0.0,
                    2.8946
                ]
            ],
            [
                [
                    3.0739,
                    0.0,
                    0.0
                ],
                [
                    -0.0,
                    3.07398,
                    -0.00013
                ],
                [
                    0.0,
                    0.0,
                    2.8946
                ]
            ],
            [
                [
                    0.83671,
                    -1e-05,
                    0.0
                ],
                [
                    0.0,
                    0.83674,
                    0.0
                ],
                [
                    -0.0,
                    0.0,
                    1.69624
                ]
            ],
            [
                [
                    0.83671,
                    1e-05,
                    0.0
                ],
                [
                    0.0,
                    0.83674,
                    0.0
                ],
                [
                    0.0,
                    0.0,
                    1.69624
                ]
            ],
            [
                [
                    -1.95531,
                    -2e-05,
                    7e-05
                ],
                [
                    0.0,
                    -1.95532,
                    0.00034
                ],
                [
                    -0.0,
                    0.0,
                    -2.29535
                ]
            ],
            [
                [
                    -1.95531,
                    2e-05,
                    7e-05
                ],
                [
                    0.0,
                    -1.9554,
                    0.0002
                ],
                [
                    -0.0,
                    -0.0,
                    -2.29535
                ]
            ],
            [
                [
                    -1.95531,
                    -2e-05,
                    -7e-05
                ],
                [
                    0.0,
                    -1.95532,
                    -0.00034
                ],
                [
                    0.0,
                    -0.0,
                    -2.29549
                ]
            ],
            [
                [
                    -1.95531,
                    2e-05,
                    -7e-05
                ],
                [
                    0.0,
                    -1.9554,
                    -0.0002
                ],
                [
                    -0.0,
                    0.0,
                    -2.29549
                ]
            ]
        ]
    },
    "band_gap": 1.9458000000000002,
    "is_direct": false,
    "formula": "AlAgO2"
}