{
    "mp_id": "mp-9655",
    "nelements": 3,
    "nsites": 18,
    "elements": [
        "Na",
        "O",
        "Sn"
    ],
    "structure": {
        "@module": "pymatgen.core.structure",
        "@class": "Structure",
        "charge": null,
        "lattice": {
            "matrix": [
                [
                    5.83666633,
                    0.00062244,
                    0.00043249
                ],
                [
                    2.13234602,
                    5.44324754,
                    -5.095e-05
                ],
                [
                    2.83925743,
                    0.13344412,
                    8.30452796
                ]
            ],
            "a": 5.836666379212951,
            "b": 5.846010890626342,
            "c": 8.777492507851804,
            "alpha": 82.40708383610603,
            "beta": 71.12273748934054,
            "gamma": 68.60154921089054,
            "volume": 263.820794595717
        },
        "sites": [
            {
                "species": [
                    {
                        "element": "Na",
                        "occu": 1
                    }
                ],
                "abc": [
                    0.25486499,
                    0.24410492,
                    0.00694395
                ],
                "xyz": [
                    2.0277937220842537,
                    1.3298087727533465,
                    0.0577640163416931
                ],
                "label": "Na",
                "properties": {}
            },
            {
                "species": [
                    {
                        "element": "Na",
                        "occu": 1
                    }
                ],
                "abc": [
                    0.74513501,
                    0.75589508,
                    0.99305605
                ],
                "xyz": [
                    8.780476057915747,
                    4.247505327246654,
                    8.247145483658306
                ],
                "label": "Na",
                "properties": {}
            },
            {
                "species": [
                    {
                        "element": "Na",
                        "occu": 1
                    }
                ],
                "abc": [
                    0.0192847,
                    0.2640943,
                    0.43517978
                ],
                "xyz": [
                    1.9112862124346024,
                    1.4956148351555836,
                    3.613957535471967
                ],
                "label": "Na",
                "properties": {}
            },
            {
                "species": [
                    {
                        "element": "Na",
                        "occu": 1
                    }
                ],
                "abc": [
                    0.9807153,
                    0.7359057,
                    0.56482022
                ],
                "xyz": [
                    8.896983567565396,
                    4.081699264844416,
                    4.6909519645280335
                ],
                "label": "Na",
                "properties": {}
            },
            {
                "species": [
                    {
                        "element": "Na",
                        "occu": 1
                    }
                ],
                "abc": [
                    0.43610395,
                    0.25007641,
                    0.59453316
                ],
                "xyz": [
                    4.766675370815771,
                    1.4408362064341889,
                    4.9374931195714
                ],
                "label": "Na",
                "properties": {}
            },
            {
                "species": [
                    {
                        "element": "Na",
                        "occu": 1
                    }
                ],
                "abc": [
                    0.56389605,
                    0.74992359,
                    0.40546684
                ],
                "xyz": [
                    6.0415944091842295,
                    4.136477893565811,
                    3.3674163804286
                ],
                "label": "Na",
                "properties": {}
            },
            {
                "species": [
                    {
                        "element": "Na",
                        "occu": 1
                    }
                ],
                "abc": [
                    0.11248811,
                    0.72050989,
                    0.19734952
                ],
                "xyz": [
                    2.7532580514414073,
                    3.948318836416181,
                    1.6389065467363775
                ],
                "label": "Na",
                "properties": {}
            },
            {
                "species": [
                    {
                        "element": "Na",
                        "occu": 1
                    }
                ],
                "abc": [
                    0.88751189,
                    0.27949011,
                    0.80265048
                ],
                "xyz": [
                    8.055011728558593,
                    1.6289952635838187,
                    6.6660029532636225
                ],
                "label": "Na",
                "properties": {}
            },
            {
                "species": [
                    {
                        "element": "Sn",
                        "occu": 1
                    }
                ],
                "abc": [
                    0.34006506,
                    0.72171631,
                    0.76612486
                ],
                "xyz": [
                    5.6990208879717255,
                    4.030927056834147,
                    6.362415624012891
                ],
                "label": "Sn",
                "properties": {}
            },
            {
                "species": [
                    {
                        "element": "Sn",
                        "occu": 1
                    }
                ],
                "abc": [
                    0.65993494,
                    0.27828369,
                    0.23387514
                ],
                "xyz": [
                    5.109248892028274,
                    1.5463870431658528,
                    1.9424938759871095
                ],
                "label": "Sn",
                "properties": {}
            },
            {
                "species": [
                    {
                        "element": "O",
                        "occu": 1
                    }
                ],
                "abc": [
                    0.12235033,
                    0.51496283,
                    0.80496417
                ],
                "xyz": [
                    4.0976974931301084,
                    2.9105640486255235,
                    6.684874134501226
                ],
                "label": "O",
                "properties": {}
            },
            {
                "species": [
                    {
                        "element": "O",
                        "occu": 1
                    }
                ],
                "abc": [
                    0.87764967,
                    0.48503717,
                    0.19503583
                ],
                "xyz": [
                    6.710572286869891,
                    2.6667500513744766,
                    1.6200353654987736
                ],
                "label": "O",
                "properties": {}
            },
            {
                "species": [
                    {
                        "element": "O",
                        "occu": 1
                    }
                ],
                "abc": [
                    0.79962723,
                    0.01224248,
                    0.38087107
                ],
                "xyz": [
                    5.774653548764645,
                    0.1179615738861488,
                    3.1632996569964633
                ],
                "label": "O",
                "properties": {}
            },
            {
                "species": [
                    {
                        "element": "O",
                        "occu": 1
                    }
                ],
                "abc": [
                    0.20037277,
                    0.98775752,
                    0.61912893
                ],
                "xyz": [
                    5.033616231235355,
                    5.459352526113851,
                    5.141609843003536
                ],
                "label": "O",
                "properties": {}
            },
            {
                "species": [
                    {
                        "element": "O",
                        "occu": 1
                    }
                ],
                "abc": [
                    0.31895709,
                    0.48061858,
                    0.37303929
                ],
                "xyz": [
                    3.9456457999332564,
                    2.666104334693868,
                    3.0980286722187516
                ],
                "label": "O",
                "properties": {}
            },
            {
                "species": [
                    {
                        "element": "O",
                        "occu": 1
                    }
                ],
                "abc": [
                    0.68104291,
                    0.51938142,
                    0.62696071
                ],
                "xyz": [
                    6.8626239800667435,
                    2.911209765306132,
                    5.206880827781248
                ],
                "label": "O",
                "properties": {}
            },
            {
                "species": [
                    {
                        "element": "O",
                        "occu": 1
                    }
                ],
                "abc": [
                    0.34992965,
                    0.84074389,
                    0.96131026
                ],
                "xyz": [
                    6.564586791944734,
                    4.704876122916548,
                    7.983336437578002
                ],
                "label": "O",
                "properties": {}
            },
            {
                "species": [
                    {
                        "element": "O",
                        "occu": 1
                    }
                ],
                "abc": [
                    0.65007035,
                    0.15925611,
                    0.03868974
                ],
                "xyz": [
                    4.243682988055266,
                    0.8724379770834522,
                    0.3215730624219974
                ],
                "label": "O",
                "properties": {}
            }
        ]
    },
    "spacegroup": {
        "source": "spglib",
        "symbol": "P-1",
        "number": 2,
        "point_group": "-1",
        "crystal_system": "triclinic",
        "hall": "-P 1"
    },
    "dielectric": {
        "epsilon_ionic": [
            [
                3.94787444,
                -0.2826544,
                0.27028674
            ],
            [
                -0.2826544,
                4.22740775,
                -0.26274149
            ],
            [
                0.27028674,
                -0.26274149,
                3.41465686
            ]
        ],
        "epsilon_ionic_avg": 3.8633130166666674,
        "epsilon_ionic_eig": [
            4.52471420338159,
            3.786377773429634,
            3.2788470731887793
        ],
        "epsilon_electronic": [
            [
                2.91911677,
                0.00323947,
                0.02750383
            ],
            [
                0.00323943,
                2.9398916,
                0.01375866
            ],
            [
                0.02750314,
                0.01375648,
                3.00734425
            ]
        ],
        "epsilon_electronic_avg": 2.9554508733333336,
        "epsilon_electronic_eig": [
            3.0177750143103297,
            2.911228449103906,
            2.937349156585765
        ]
    },
    "phonon": {
        "lowest_freq": -0.0405492957390014,
        "frequency": [
            -0.0405492957390014,
            -0.03011189199503946,
            -0.024207625846565512,
            2.5378800131922743,
            3.0501717674435818,
            3.2748829542141507,
            3.4248615921831624,
            3.8447395119218224,
            4.03466688294159,
            4.221166111157445,
            4.301074302713433,
            4.440642311541928,
            4.717412442274652,
            4.833306356259006,
            4.8919843400034955,
            5.291738398976458,
            5.430598803874595,
            5.582687210667583,
            5.593193117360483,
            5.860579884461763,
            5.928407162985776,
            6.065789974226245,
            6.292790350774029,
            6.4879953829501735,
            6.598769829682662,
            6.724462407987932,
            6.977391889727045,
            7.012437200351226,
            7.0502643240463145,
            7.269595282534038,
            7.439068145612775,
            7.530923155822079,
            7.924562018107347,
            8.045087124539865,
            8.134761183024846,
            8.365860089685366,
            8.464146385200008,
            8.693661924948385,
            8.887619826556415,
            9.19688946858453,
            9.200887740023603,
            9.328429436841516,
            9.353013353924737,
            9.664350924182314,
            10.374726287521296,
            11.198207892901994,
            17.110630041920786,
            17.23053186369052,
            17.601123993965725,
            18.013191970956683,
            18.424762627043034,
            19.026603310821447,
            19.152618408105553,
            19.28164272869719
        ]
    },
    "born_effective_charge": {
        "avg_abs_trace": 1.4766048148148148,
        "tensors": [
            [
                [
                    1.02864,
                    0.03868,
                    -0.09179
                ],
                [
                    0.04083,
                    0.99021,
                    -0.06229
                ],
                [
                    0.06009,
                    0.04625,
                    0.91553
                ]
            ],
            [
                [
                    1.02866,
                    0.0387,
                    -0.09178
                ],
                [
                    0.04079,
                    0.99022,
                    -0.06227
                ],
                [
                    0.06006,
                    0.0463,
                    0.91551
                ]
            ],
            [
                [
                    1.15459,
                    -0.0649,
                    0.08954
                ],
                [
                    -0.11497,
                    0.95594,
                    -0.00089
                ],
                [
                    0.06126,
                    -0.0386,
                    1.04644
                ]
            ],
            [
                [
                    1.15459,
                    -0.06492,
                    0.08954
                ],
                [
                    -0.11495,
                    0.95595,
                    -0.00088
                ],
                [
                    0.06124,
                    -0.03859,
                    1.04644
                ]
            ],
            [
                [
                    0.81355,
                    0.12015,
                    -0.01035
                ],
                [
                    0.15737,
                    1.00659,
                    0.06175
                ],
                [
                    -0.04595,
                    0.02637,
                    1.02449
                ]
            ],
            [
                [
                    0.81353,
                    0.12014,
                    -0.01034
                ],
                [
                    0.15741,
                    1.0066,
                    0.06177
                ],
                [
                    -0.04597,
                    0.0264,
                    1.02446
                ]
            ],
            [
                [
                    1.00654,
                    -0.06595,
                    0.01809
                ],
                [
                    -0.07518,
                    1.0453,
                    0.01494
                ],
                [
                    -0.07393,
                    -0.04066,
                    0.93467
                ]
            ],
            [
                [
                    1.00654,
                    -0.06594,
                    0.01808
                ],
                [
                    -0.07518,
                    1.0453,
                    0.01496
                ],
                [
                    -0.07389,
                    -0.04069,
                    0.93468
                ]
            ],
            [
                [
                    2.51457,
                    -0.00972,
                    0.01688
                ],
                [
                    0.01617,
                    2.62564,
                    0.03399
                ],
                [
                    0.01104,
                    0.0199,
                    2.87137
                ]
            ],
            [
                [
                    2.5147,
                    -0.00975,
                    0.01696
                ],
                [
                    0.01618,
                    2.62576,
                    0.03388
                ],
                [
                    0.01108,
                    0.02002,
                    2.87133
                ]
            ],
            [
                [
                    -1.86076,
                    -0.3879,
                    0.15198
                ],
                [
                    -0.39653,
                    -1.60818,
                    0.07069
                ],
                [
                    0.19255,
                    0.13757,
                    -1.45083
                ]
            ],
            [
                [
                    -1.86087,
                    -0.38794,
                    0.15184
                ],
                [
                    -0.39673,
                    -1.60842,
                    0.0707
                ],
                [
                    0.19205,
                    0.1371,
                    -1.45069
                ]
            ],
            [
                [
                    -1.41153,
                    0.13452,
                    -0.17165
                ],
                [
                    0.21217,
                    -1.87861,
                    0.37916
                ],
                [
                    -0.12266,
                    0.3028,
                    -1.71634
                ]
            ],
            [
                [
                    -1.41157,
                    0.13439,
                    -0.17167
                ],
                [
                    0.21207,
                    -1.87851,
                    0.37892
                ],
                [
                    -0.12285,
                    0.30309,
                    -1.71668
                ]
            ],
            [
                [
                    -1.71782,
                    0.30819,
                    0.23953
                ],
                [
                    0.22148,
                    -1.5933,
                    -0.32713
                ],
                [
                    0.21558,
                    -0.22629,
                    -1.71367
                ]
            ],
            [
                [
                    -1.71773,
                    0.30815,
                    0.23949
                ],
                [
                    0.22163,
                    -1.59328,
                    -0.32727
                ],
                [
                    0.21564,
                    -0.22628,
                    -1.71354
                ]
            ],
            [
                [
                    -1.52777,
                    -0.07291,
                    -0.24214
                ],
                [
                    -0.06125,
                    -1.5436,
                    -0.17014
                ],
                [
                    -0.29763,
                    -0.22729,
                    -1.91143
                ]
            ],
            [
                [
                    -1.52784,
                    -0.07297,
                    -0.24222
                ],
                [
                    -0.06132,
                    -1.54361,
                    -0.1699
                ],
                [
                    -0.29771,
                    -0.2274,
                    -1.91174
                ]
            ]
        ]
    },
    "band_gap": 2.1325,
    "is_direct": false,
    "formula": "Na4SnO4"
}