{
    "mp_id": "mp-997036",
    "nelements": 3,
    "nsites": 8,
    "elements": [
        "Au",
        "Cd",
        "O"
    ],
    "structure": {
        "@module": "pymatgen.core.structure",
        "@class": "Structure",
        "charge": null,
        "lattice": {
            "matrix": [
                [
                    4.02340594,
                    0.0005213,
                    -0.00063892
                ],
                [
                    0.30418586,
                    5.48874752,
                    0.0003377
                ],
                [
                    1.63302801,
                    2.50206788,
                    5.15948011
                ]
            ],
            "a": 4.023406024502094,
            "b": 5.497170043738086,
            "c": 5.962160611981018,
            "alpha": 64.26405645352745,
            "beta": 74.10855344965557,
            "gamma": 86.82049526471084,
            "volume": 113.94019251370351
        },
        "sites": [
            {
                "species": [
                    {
                        "element": "Cd",
                        "occu": 1
                    }
                ],
                "abc": [
                    0.72716453,
                    0.72948353,
                    0.53464297
                ],
                "xyz": [
                    4.020663609647784,
                    5.342042989542638,
                    2.7582615162929
                ],
                "label": "Cd",
                "properties": {}
            },
            {
                "species": [
                    {
                        "element": "Cd",
                        "occu": 1
                    }
                ],
                "abc": [
                    0.27283547,
                    0.27051647,
                    0.46535703
                ],
                "xyz": [
                    1.9399562003522164,
                    2.649293710457362,
                    2.4009173737070997
                ],
                "label": "Cd",
                "properties": {}
            },
            {
                "species": [
                    {
                        "element": "Au",
                        "occu": 1
                    }
                ],
                "abc": [
                    0.5,
                    0.0,
                    0.0
                ],
                "xyz": [
                    2.01170297,
                    0.00026065,
                    -0.00031946
                ],
                "label": "Au",
                "properties": {}
            },
            {
                "species": [
                    {
                        "element": "Au",
                        "occu": 1
                    }
                ],
                "abc": [
                    0.0,
                    0.5,
                    0.0
                ],
                "xyz": [
                    0.15209293,
                    2.74437376,
                    0.00016885
                ],
                "label": "Au",
                "properties": {}
            },
            {
                "species": [
                    {
                        "element": "O",
                        "occu": 1
                    }
                ],
                "abc": [
                    0.31648125,
                    0.83905278,
                    0.81005757
                ],
                "xyz": [
                    2.8514072341408516,
                    6.632332873897583,
                    4.179557062293489
                ],
                "label": "O",
                "properties": {}
            },
            {
                "species": [
                    {
                        "element": "O",
                        "occu": 1
                    }
                ],
                "abc": [
                    0.68351875,
                    0.16094722,
                    0.18994243
                ],
                "xyz": [
                    3.1092125758591482,
                    1.359003826102418,
                    0.9796218277065112
                ],
                "label": "O",
                "properties": {}
            },
            {
                "species": [
                    {
                        "element": "O",
                        "occu": 1
                    }
                ],
                "abc": [
                    0.28348411,
                    0.71947836,
                    0.35771482
                ],
                "xyz": [
                    1.9435851164097113,
                    4.844209605732192,
                    1.8456843430168408
                ],
                "label": "O",
                "properties": {}
            },
            {
                "species": [
                    {
                        "element": "O",
                        "occu": 1
                    }
                ],
                "abc": [
                    0.71651589,
                    0.28052164,
                    0.64228518
                ],
                "xyz": [
                    4.017034693590289,
                    3.147127094267808,
                    3.313494546983159
                ],
                "label": "O",
                "properties": {}
            }
        ]
    },
    "spacegroup": {
        "source": "spglib",
        "symbol": "P-1",
        "number": 2,
        "point_group": "-1",
        "crystal_system": "triclinic",
        "hall": "-P 1"
    },
    "dielectric": {
        "epsilon_ionic": [
            [
                3.44949815,
                1.11167314,
                0.89666544
            ],
            [
                1.11167314,
                4.15378685,
                -0.41841004
            ],
            [
                0.89666544,
                -0.41841004,
                5.68506053
            ]
        ],
        "epsilon_ionic_avg": 4.42944851,
        "epsilon_ionic_eig": [
            2.351682141676716,
            4.935898567964143,
            6.000764820359143
        ],
        "epsilon_electronic": [
            [
                6.5194094,
                1.02254186,
                0.03533626
            ],
            [
                1.02253973,
                7.1225157,
                0.01802112
            ],
            [
                0.03533559,
                0.01802111,
                7.66138305
            ]
        ],
        "epsilon_electronic_avg": 7.101102716666667,
        "epsilon_electronic_eig": [
            5.754722923541893,
            7.892525418885544,
            7.656059807572565
        ]
    },
    "phonon": {
        "lowest_freq": -0.0233009555650504,
        "frequency": [
            -0.0233009555650504,
            -0.01442162526126933,
            -0.005641888646214503,
            2.4709790324982848,
            2.700754550887653,
            2.7507799398042767,
            3.0404546914047117,
            3.1944400971997884,
            3.737905514873251,
            4.76410096734865,
            4.766184004572997,
            5.490499036410037,
            7.543029803960189,
            8.72947052930422,
            10.241201191770958,
            11.047547817592767,
            11.26751105740221,
            11.910182777918866,
            14.125093623127874,
            15.377633371365595,
            16.527222989317135,
            17.786611461114713,
            18.650590941125174,
            19.059285362486637
        ]
    },
    "born_effective_charge": {
        "avg_abs_trace": 1.8567241666666665,
        "tensors": [
            [
                [
                    2.47681,
                    -0.1396,
                    0.11561
                ],
                [
                    -0.2055,
                    2.35729,
                    -0.01992
                ],
                [
                    -0.03783,
                    -0.09703,
                    2.80131
                ]
            ],
            [
                [
                    2.47666,
                    -0.13969,
                    0.11547
                ],
                [
                    -0.2056,
                    2.35743,
                    -0.01981
                ],
                [
                    -0.03818,
                    -0.09677,
                    2.8012
                ]
            ],
            [
                [
                    0.99343,
                    0.97642,
                    0.22898
                ],
                [
                    1.11153,
                    1.73191,
                    0.29795
                ],
                [
                    0.39563,
                    -0.0274,
                    2.70653
                ]
            ],
            [
                [
                    0.65814,
                    1.01285,
                    -0.86576
                ],
                [
                    0.85431,
                    1.04874,
                    -0.78146
                ],
                [
                    -0.59686,
                    -0.55756,
                    -0.12875
                ]
            ],
            [
                [
                    -1.61678,
                    -0.71665,
                    -0.10063
                ],
                [
                    -0.63432,
                    -2.10011,
                    -0.17417
                ],
                [
                    -0.122,
                    -0.12207,
                    -1.3206
                ]
            ],
            [
                [
                    -1.61709,
                    -0.71652,
                    -0.10059
                ],
                [
                    -0.63467,
                    -2.10036,
                    -0.17423
                ],
                [
                    -0.12241,
                    -0.12208,
                    -1.32077
                ]
            ],
            [
                [
                    -1.68569,
                    -0.13851,
                    0.30343
                ],
                [
                    -0.14306,
                    -1.64764,
                    0.436
                ],
                [
                    0.26056,
                    0.51109,
                    -2.76971
                ]
            ],
            [
                [
                    -1.68549,
                    -0.13829,
                    0.30349
                ],
                [
                    -0.14269,
                    -1.64725,
                    0.43565
                ],
                [
                    0.26109,
                    0.51182,
                    -2.76919
                ]
            ]
        ]
    },
    "band_gap": 1.0847000000000002,
    "is_direct": false,
    "formula": "CdAuO2"
}