{
    "mp_id": "mp-9749",
    "nelements": 3,
    "nsites": 28,
    "elements": [
        "B",
        "O",
        "Sr"
    ],
    "structure": {
        "@module": "pymatgen.core.structure",
        "@class": "Structure",
        "charge": null,
        "lattice": {
            "matrix": [
                [
                    11.98811802,
                    0.0,
                    0.0
                ],
                [
                    0.0,
                    4.34822108,
                    0.0
                ],
                [
                    0.0,
                    0.0,
                    6.56622539
                ]
            ],
            "a": 11.98811802,
            "b": 4.34822108,
            "c": 6.56622539,
            "alpha": 90.0,
            "beta": 90.0,
            "gamma": 90.0,
            "volume": 342.2775487222562
        },
        "sites": [
            {
                "species": [
                    {
                        "element": "Sr",
                        "occu": 1
                    }
                ],
                "abc": [
                    0.0,
                    0.23731025,
                    0.25
                ],
                "xyz": [
                    0.0,
                    1.03187743155007,
                    1.6415563475
                ],
                "label": "Sr",
                "properties": {}
            },
            {
                "species": [
                    {
                        "element": "Sr",
                        "occu": 1
                    }
                ],
                "abc": [
                    0.5,
                    0.26268975,
                    0.75
                ],
                "xyz": [
                    5.99405901,
                    1.14223310844993,
                    4.9246690425
                ],
                "label": "Sr",
                "properties": {}
            },
            {
                "species": [
                    {
                        "element": "Sr",
                        "occu": 1
                    }
                ],
                "abc": [
                    0.0,
                    0.76268975,
                    0.75
                ],
                "xyz": [
                    0.0,
                    3.3163436484499305,
                    4.9246690425
                ],
                "label": "Sr",
                "properties": {}
            },
            {
                "species": [
                    {
                        "element": "Sr",
                        "occu": 1
                    }
                ],
                "abc": [
                    0.5,
                    0.73731025,
                    0.25
                ],
                "xyz": [
                    5.99405901,
                    3.2059879715500696,
                    1.6415563475
                ],
                "label": "Sr",
                "properties": {}
            },
            {
                "species": [
                    {
                        "element": "B",
                        "occu": 1
                    }
                ],
                "abc": [
                    0.80614183,
                    0.66920338,
                    0.37307632
                ],
                "xyz": [
                    9.664123398898775,
                    2.9098442437232506,
                    2.449703204791765
                ],
                "label": "B",
                "properties": {}
            },
            {
                "species": [
                    {
                        "element": "B",
                        "occu": 1
                    }
                ],
                "abc": [
                    0.19385817,
                    0.66920338,
                    0.12692368
                ],
                "xyz": [
                    2.3239946211012232,
                    2.9098442437232506,
                    0.8334094902082352
                ],
                "label": "B",
                "properties": {}
            },
            {
                "species": [
                    {
                        "element": "B",
                        "occu": 1
                    }
                ],
                "abc": [
                    0.69385817,
                    0.83079662,
                    0.87307632
                ],
                "xyz": [
                    8.318053631101224,
                    3.6124873762767495,
                    5.732815899791764
                ],
                "label": "B",
                "properties": {}
            },
            {
                "species": [
                    {
                        "element": "B",
                        "occu": 1
                    }
                ],
                "abc": [
                    0.30614183,
                    0.83079662,
                    0.62692368
                ],
                "xyz": [
                    3.6700643888987767,
                    3.6124873762767495,
                    4.116522185208235
                ],
                "label": "B",
                "properties": {}
            },
            {
                "species": [
                    {
                        "element": "B",
                        "occu": 1
                    }
                ],
                "abc": [
                    0.30614183,
                    0.16920338,
                    0.12692368
                ],
                "xyz": [
                    3.6700643888987767,
                    0.7357337037232503,
                    0.8334094902082352
                ],
                "label": "B",
                "properties": {}
            },
            {
                "species": [
                    {
                        "element": "B",
                        "occu": 1
                    }
                ],
                "abc": [
                    0.69385817,
                    0.16920338,
                    0.37307632
                ],
                "xyz": [
                    8.318053631101224,
                    0.7357337037232503,
                    2.449703204791765
                ],
                "label": "B",
                "properties": {}
            },
            {
                "species": [
                    {
                        "element": "B",
                        "occu": 1
                    }
                ],
                "abc": [
                    0.19385817,
                    0.33079662,
                    0.62692368
                ],
                "xyz": [
                    2.3239946211012232,
                    1.4383768362767495,
                    4.116522185208235
                ],
                "label": "B",
                "properties": {}
            },
            {
                "species": [
                    {
                        "element": "B",
                        "occu": 1
                    }
                ],
                "abc": [
                    0.80614183,
                    0.33079662,
                    0.87307632
                ],
                "xyz": [
                    9.664123398898775,
                    1.4383768362767495,
                    5.732815899791764
                ],
                "label": "B",
                "properties": {}
            },
            {
                "species": [
                    {
                        "element": "O",
                        "occu": 1
                    }
                ],
                "abc": [
                    0.08968704,
                    0.23598163,
                    0.59423886
                ],
                "xyz": [
                    1.0751788203844608,
                    1.0261002980587604,
                    3.9019062902566555
                ],
                "label": "O",
                "properties": {}
            },
            {
                "species": [
                    {
                        "element": "O",
                        "occu": 1
                    }
                ],
                "abc": [
                    0.58968704,
                    0.73598163,
                    0.90576114
                ],
                "xyz": [
                    7.069237830384461,
                    3.200210838058761,
                    5.947431794743344
                ],
                "label": "O",
                "properties": {}
            },
            {
                "species": [
                    {
                        "element": "O",
                        "occu": 1
                    }
                ],
                "abc": [
                    0.08968704,
                    0.76401837,
                    0.09423886
                ],
                "xyz": [
                    1.0751788203844608,
                    3.3221207819412393,
                    0.6187935952566553
                ],
                "label": "O",
                "properties": {}
            },
            {
                "species": [
                    {
                        "element": "O",
                        "occu": 1
                    }
                ],
                "abc": [
                    0.41031296,
                    0.73598163,
                    0.59423886
                ],
                "xyz": [
                    4.918880189615539,
                    3.200210838058761,
                    3.9019062902566555
                ],
                "label": "O",
                "properties": {}
            },
            {
                "species": [
                    {
                        "element": "O",
                        "occu": 1
                    }
                ],
                "abc": [
                    0.71064011,
                    0.84938189,
                    0.35155722
                ],
                "xyz": [
                    8.519237508425782,
                    3.693300239068241,
                    2.3084039440018156
                ],
                "label": "O",
                "properties": {}
            },
            {
                "species": [
                    {
                        "element": "O",
                        "occu": 1
                    }
                ],
                "abc": [
                    0.28935989,
                    0.84938189,
                    0.14844278
                ],
                "xyz": [
                    3.468880511574218,
                    3.693300239068241,
                    0.9747087509981841
                ],
                "label": "O",
                "properties": {}
            },
            {
                "species": [
                    {
                        "element": "O",
                        "occu": 1
                    }
                ],
                "abc": [
                    0.78935989,
                    0.65061811,
                    0.85155722
                ],
                "xyz": [
                    9.462939521574217,
                    2.829031380931759,
                    5.591516639001815
                ],
                "label": "O",
                "properties": {}
            },
            {
                "species": [
                    {
                        "element": "O",
                        "occu": 1
                    }
                ],
                "abc": [
                    0.21064011,
                    0.65061811,
                    0.64844278
                ],
                "xyz": [
                    2.525178498425782,
                    2.829031380931759,
                    4.257821445998184
                ],
                "label": "O",
                "properties": {}
            },
            {
                "species": [
                    {
                        "element": "O",
                        "occu": 1
                    }
                ],
                "abc": [
                    0.28935989,
                    0.15061811,
                    0.64844278
                ],
                "xyz": [
                    3.468880511574218,
                    0.6549208409317588,
                    4.257821445998184
                ],
                "label": "O",
                "properties": {}
            },
            {
                "species": [
                    {
                        "element": "O",
                        "occu": 1
                    }
                ],
                "abc": [
                    0.71064011,
                    0.15061811,
                    0.85155722
                ],
                "xyz": [
                    8.519237508425782,
                    0.6549208409317588,
                    5.591516639001815
                ],
                "label": "O",
                "properties": {}
            },
            {
                "species": [
                    {
                        "element": "O",
                        "occu": 1
                    }
                ],
                "abc": [
                    0.21064011,
                    0.34938189,
                    0.14844278
                ],
                "xyz": [
                    2.525178498425782,
                    1.5191896990682412,
                    0.9747087509981841
                ],
                "label": "O",
                "properties": {}
            },
            {
                "species": [
                    {
                        "element": "O",
                        "occu": 1
                    }
                ],
                "abc": [
                    0.78935989,
                    0.34938189,
                    0.35155722
                ],
                "xyz": [
                    9.462939521574217,
                    1.5191896990682412,
                    2.3084039440018156
                ],
                "label": "O",
                "properties": {}
            },
            {
                "species": [
                    {
                        "element": "O",
                        "occu": 1
                    }
                ],
                "abc": [
                    0.41031296,
                    0.26401837,
                    0.09423886
                ],
                "xyz": [
                    4.918880189615539,
                    1.1480102419412397,
                    0.6187935952566553
                ],
                "label": "O",
                "properties": {}
            },
            {
                "species": [
                    {
                        "element": "O",
                        "occu": 1
                    }
                ],
                "abc": [
                    0.58968704,
                    0.26401837,
                    0.40576114
                ],
                "xyz": [
                    7.069237830384461,
                    1.1480102419412397,
                    2.6643190997433446
                ],
                "label": "O",
                "properties": {}
            },
            {
                "species": [
                    {
                        "element": "O",
                        "occu": 1
                    }
                ],
                "abc": [
                    0.91031296,
                    0.76401837,
                    0.40576114
                ],
                "xyz": [
                    10.912939199615538,
                    3.3221207819412393,
                    2.6643190997433446
                ],
                "label": "O",
                "properties": {}
            },
            {
                "species": [
                    {
                        "element": "O",
                        "occu": 1
                    }
                ],
                "abc": [
                    0.91031296,
                    0.23598163,
                    0.90576114
                ],
                "xyz": [
                    10.912939199615538,
                    1.0261002980587604,
                    5.947431794743344
                ],
                "label": "O",
                "properties": {}
            }
        ]
    },
    "spacegroup": {
        "source": "spglib",
        "symbol": "Pbcn",
        "number": 60,
        "point_group": "mmm",
        "crystal_system": "orthorhombic",
        "hall": "-P 2n 2ab"
    },
    "dielectric": {
        "epsilon_ionic": [
            [
                3.71100453,
                -2e-08,
                0.0
            ],
            [
                -2e-08,
                4.96424118,
                -0.0
            ],
            [
                0.0,
                -0.0,
                3.21422153
            ]
        ],
        "epsilon_ionic_avg": 3.9631557466666663,
        "epsilon_ionic_eig": [
            3.7110045299999994,
            4.96424118,
            3.21422153
        ],
        "epsilon_electronic": [
            [
                3.01383654,
                0.0,
                0.0
            ],
            [
                0.0,
                2.91850413,
                -0.0
            ],
            [
                0.0,
                -0.0,
                2.49714449
            ]
        ],
        "epsilon_electronic_avg": 2.8098283866666667,
        "epsilon_electronic_eig": [
            3.01383654,
            2.91850413,
            2.49714449
        ]
    },
    "phonon": {
        "lowest_freq": -0.041622408992638533,
        "frequency": [
            -0.041622408992638533,
            -0.03004542625270658,
            -0.009420094458139947,
            1.5253914021845787,
            1.907539853683591,
            2.2990238830641325,
            2.325998530400776,
            2.54101528063166,
            2.9295830099507105,
            2.952046492228536,
            3.0307574980104057,
            3.5645427816984574,
            3.6395151622755586,
            3.746099158054233,
            4.121284015598521,
            4.3097896111964795,
            4.5217385247946895,
            4.532068187031523,
            4.604100937936777,
            4.760607010888109,
            4.784344690286745,
            4.882402145824827,
            5.501951976645973,
            5.547568619310717,
            5.634874342889093,
            5.837848328687611,
            5.8775565639230845,
            6.066997895607384,
            6.09355143358477,
            6.510347533750991,
            6.794062001600493,
            6.954434744653327,
            7.514695443143739,
            7.653259578440257,
            8.552957392947826,
            8.778014070859136,
            9.099509091202007,
            9.1173118241761,
            9.215265145838018,
            9.261579894870337,
            10.758866456819801,
            10.943463008479277,
            11.048417941367777,
            11.21074648822925,
            18.308450249253262,
            18.36313606200667,
            18.421139199384196,
            18.469259270086184,
            19.207809089559614,
            19.24960260891791,
            19.293911280702375,
            19.339196317023816,
            19.523258804382305,
            19.530369968339823,
            20.205376851407213,
            20.209510650909408,
            20.487973056777797,
            20.539701075928136,
            20.581549521789057,
            20.618334692327142,
            20.978985884261203,
            20.986770323508544,
            21.80657539378265,
            21.890655373752736,
            31.76943243737796,
            31.794694026717497,
            31.83267828719743,
            31.836537108428217,
            34.24620563321376,
            34.252056649431715,
            34.28320847896167,
            34.28772826920162,
            34.748754688730024,
            34.86776303918372,
            34.916717746113086,
            34.92686196626775,
            41.44503541419,
            41.46641756010253,
            41.63684484502631,
            42.568609276690225,
            42.717754046479904,
            43.582562775686846,
            43.585300757904875,
            46.5843928283709
        ]
    },
    "born_effective_charge": {
        "avg_abs_trace": 1.9396988095238095,
        "tensors": [
            [
                [
                    2.63988,
                    3e-05,
                    0.00699
                ],
                [
                    -0.0,
                    2.43421,
                    -0.0
                ],
                [
                    -0.1093,
                    -0.0,
                    2.45575
                ]
            ],
            [
                [
                    2.63988,
                    -3e-05,
                    -0.00699
                ],
                [
                    -0.0,
                    2.43418,
                    -0.0
                ],
                [
                    0.1093,
                    0.0,
                    2.45575
                ]
            ],
            [
                [
                    2.63988,
                    -3e-05,
                    0.00699
                ],
                [
                    -0.0,
                    2.43418,
                    -0.0
                ],
                [
                    -0.1093,
                    0.0,
                    2.45575
                ]
            ],
            [
                [
                    2.63988,
                    3e-05,
                    -0.00699
                ],
                [
                    -0.0,
                    2.43421,
                    -0.0
                ],
                [
                    0.1093,
                    -0.0,
                    2.45575
                ]
            ],
            [
                [
                    2.8321,
                    0.2298,
                    0.3625
                ],
                [
                    -0.25989,
                    2.78254,
                    0.09876
                ],
                [
                    0.32671,
                    0.10489,
                    0.80401
                ]
            ],
            [
                [
                    2.83208,
                    -0.22976,
                    0.36249
                ],
                [
                    0.25989,
                    2.78254,
                    -0.09876
                ],
                [
                    0.32671,
                    -0.10489,
                    0.804
                ]
            ],
            [
                [
                    2.83208,
                    0.22976,
                    -0.36249
                ],
                [
                    -0.25964,
                    2.78228,
                    -0.09876
                ],
                [
                    -0.32671,
                    -0.10489,
                    0.80401
                ]
            ],
            [
                [
                    2.8321,
                    -0.2298,
                    -0.3625
                ],
                [
                    0.25964,
                    2.78228,
                    0.09876
                ],
                [
                    -0.32671,
                    0.10489,
                    0.804
                ]
            ],
            [
                [
                    2.8321,
                    0.2298,
                    -0.3625
                ],
                [
                    -0.25989,
                    2.78254,
                    -0.09876
                ],
                [
                    -0.32671,
                    -0.10489,
                    0.804
                ]
            ],
            [
                [
                    2.83208,
                    -0.22976,
                    -0.36249
                ],
                [
                    0.25989,
                    2.78254,
                    0.09876
                ],
                [
                    -0.32671,
                    0.10489,
                    0.80401
                ]
            ],
            [
                [
                    2.83208,
                    0.22976,
                    0.36249
                ],
                [
                    -0.25964,
                    2.78228,
                    0.09876
                ],
                [
                    0.32671,
                    0.10489,
                    0.804
                ]
            ],
            [
                [
                    2.8321,
                    -0.2298,
                    0.3625
                ],
                [
                    0.25964,
                    2.78228,
                    -0.09876
                ],
                [
                    0.32671,
                    -0.10489,
                    0.80401
                ]
            ],
            [
                [
                    -2.28357,
                    -0.35687,
                    -0.24758
                ],
                [
                    -0.24068,
                    -1.58867,
                    -0.00145
                ],
                [
                    -0.17774,
                    -0.01355,
                    -1.34459
                ]
            ],
            [
                [
                    -2.28357,
                    -0.35687,
                    0.24758
                ],
                [
                    -0.24068,
                    -1.58867,
                    0.00145
                ],
                [
                    0.1778,
                    0.01356,
                    -1.3446
                ]
            ],
            [
                [
                    -2.28357,
                    0.35687,
                    -0.24758
                ],
                [
                    0.24065,
                    -1.58865,
                    0.00132
                ],
                [
                    -0.17774,
                    0.01355,
                    -1.34459
                ]
            ],
            [
                [
                    -2.28355,
                    0.35683,
                    0.24764
                ],
                [
                    0.24068,
                    -1.58867,
                    -0.00145
                ],
                [
                    0.17774,
                    -0.01355,
                    -1.34459
                ]
            ],
            [
                [
                    -1.86843,
                    0.71939,
                    -0.11403
                ],
                [
                    0.74683,
                    -2.41111,
                    -0.08637
                ],
                [
                    -0.13217,
                    -0.06862,
                    -0.68727
                ]
            ],
            [
                [
                    -1.86851,
                    -0.71931,
                    -0.11407
                ],
                [
                    -0.74683,
                    -2.41111,
                    0.08637
                ],
                [
                    -0.13218,
                    0.06866,
                    -0.6873
                ]
            ],
            [
                [
                    -1.86851,
                    0.71931,
                    0.11407
                ],
                [
                    0.74625,
                    -2.41059,
                    0.08647
                ],
                [
                    0.13217,
                    0.06862,
                    -0.68727
                ]
            ],
            [
                [
                    -1.86843,
                    -0.71939,
                    0.11403
                ],
                [
                    -0.74625,
                    -2.41059,
                    -0.08647
                ],
                [
                    0.13218,
                    -0.06866,
                    -0.6873
                ]
            ],
            [
                [
                    -1.86851,
                    0.71931,
                    -0.11407
                ],
                [
                    0.74625,
                    -2.41059,
                    -0.08647
                ],
                [
                    -0.13218,
                    -0.06866,
                    -0.6873
                ]
            ],
            [
                [
                    -1.86843,
                    -0.71939,
                    -0.11403
                ],
                [
                    -0.74625,
                    -2.41059,
                    0.08647
                ],
                [
                    -0.13217,
                    0.06862,
                    -0.68727
                ]
            ],
            [
                [
                    -1.86843,
                    0.71939,
                    0.11403
                ],
                [
                    0.74683,
                    -2.41111,
                    0.08637
                ],
                [
                    0.13218,
                    0.06866,
                    -0.6873
                ]
            ],
            [
                [
                    -1.86851,
                    -0.71931,
                    0.11407
                ],
                [
                    -0.74683,
                    -2.41111,
                    -0.08637
                ],
                [
                    0.13217,
                    -0.06862,
                    -0.68727
                ]
            ],
            [
                [
                    -2.28355,
                    -0.35683,
                    0.24764
                ],
                [
                    -0.24065,
                    -1.58865,
                    0.00132
                ],
                [
                    0.17774,
                    0.01355,
                    -1.34459
                ]
            ],
            [
                [
                    -2.28357,
                    0.35687,
                    0.24758
                ],
                [
                    0.24065,
                    -1.58865,
                    -0.00132
                ],
                [
                    0.1778,
                    -0.01356,
                    -1.3446
                ]
            ],
            [
                [
                    -2.28355,
                    -0.35683,
                    -0.24764
                ],
                [
                    -0.24065,
                    -1.58865,
                    -0.00132
                ],
                [
                    -0.1778,
                    -0.01356,
                    -1.3446
                ]
            ],
            [
                [
                    -2.28355,
                    0.35683,
                    -0.24764
                ],
                [
                    0.24068,
                    -1.58867,
                    0.00145
                ],
                [
                    -0.1778,
                    0.01356,
                    -1.3446
                ]
            ]
        ]
    },
    "band_gap": 4.9697,
    "is_direct": false,
    "formula": "Sr(BO2)2"
}