{
    "mp_id": "mp-9783",
    "nelements": 3,
    "nsites": 13,
    "elements": [
        "As",
        "Ba",
        "O"
    ],
    "structure": {
        "@module": "pymatgen.core.structure",
        "@class": "Structure",
        "charge": null,
        "lattice": {
            "matrix": [
                [
                    2.88685635,
                    1.66672721,
                    7.10319746
                ],
                [
                    -2.88685635,
                    1.66672721,
                    7.10319746
                ],
                [
                    0.0,
                    -3.33345442,
                    7.10319746
                ]
            ],
            "a": 7.8464854128354915,
            "b": 7.8464854128354915,
            "c": 7.846485361355617,
            "alpha": 43.17443485426263,
            "beta": 43.17443485426263,
            "gamma": 43.17443635372365,
            "volume": 205.06655590416693
        },
        "sites": [
            {
                "species": [
                    {
                        "element": "Ba",
                        "occu": 1
                    }
                ],
                "abc": [
                    0.79393522,
                    0.79393522,
                    0.79393522
                ],
                "xyz": [
                    0.0,
                    0.0,
                    16.918435914325624
                ],
                "label": "Ba",
                "properties": {}
            },
            {
                "species": [
                    {
                        "element": "Ba",
                        "occu": 1
                    }
                ],
                "abc": [
                    0.20606478,
                    0.20606478,
                    0.20606478
                ],
                "xyz": [
                    0.0,
                    0.0,
                    4.391156465674376
                ],
                "label": "Ba",
                "properties": {}
            },
            {
                "species": [
                    {
                        "element": "Ba",
                        "occu": 1
                    }
                ],
                "abc": [
                    0.0,
                    0.0,
                    0.0
                ],
                "xyz": [
                    0.0,
                    0.0,
                    0.0
                ],
                "label": "Ba",
                "properties": {}
            },
            {
                "species": [
                    {
                        "element": "As",
                        "occu": 1
                    }
                ],
                "abc": [
                    0.59259982,
                    0.59259982,
                    0.59259982
                ],
                "xyz": [
                    0.0,
                    0.0,
                    12.62806060866137
                ],
                "label": "As",
                "properties": {}
            },
            {
                "species": [
                    {
                        "element": "As",
                        "occu": 1
                    }
                ],
                "abc": [
                    0.40740018,
                    0.40740018,
                    0.40740018
                ],
                "xyz": [
                    0.0,
                    0.0,
                    8.681531771338628
                ],
                "label": "As",
                "properties": {}
            },
            {
                "species": [
                    {
                        "element": "O",
                        "occu": 1
                    }
                ],
                "abc": [
                    0.67268594,
                    0.67268594,
                    0.67268594
                ],
                "xyz": [
                    0.0,
                    0.0,
                    14.334663181157138
                ],
                "label": "O",
                "properties": {}
            },
            {
                "species": [
                    {
                        "element": "O",
                        "occu": 1
                    }
                ],
                "abc": [
                    0.32731406,
                    0.32731406,
                    0.32731406
                ],
                "xyz": [
                    0.0,
                    0.0,
                    6.974929198842863
                ],
                "label": "O",
                "properties": {}
            },
            {
                "species": [
                    {
                        "element": "O",
                        "occu": 1
                    }
                ],
                "abc": [
                    0.72725095,
                    0.72725095,
                    0.2415991
                ],
                "xyz": [
                    0.0,
                    1.6188983059636768,
                    12.047740315103459
                ],
                "label": "O",
                "properties": {}
            },
            {
                "species": [
                    {
                        "element": "O",
                        "occu": 1
                    }
                ],
                "abc": [
                    0.72725095,
                    0.2415991,
                    0.72725095
                ],
                "xyz": [
                    1.4020071270617471,
                    -0.8094491529818384,
                    12.047740315103459
                ],
                "label": "O",
                "properties": {}
            },
            {
                "species": [
                    {
                        "element": "O",
                        "occu": 1
                    }
                ],
                "abc": [
                    0.2415991,
                    0.72725095,
                    0.72725095
                ],
                "xyz": [
                    -1.4020071270617471,
                    -0.8094491529818384,
                    12.047740315103459
                ],
                "label": "O",
                "properties": {}
            },
            {
                "species": [
                    {
                        "element": "O",
                        "occu": 1
                    }
                ],
                "abc": [
                    0.27274905,
                    0.7584009,
                    0.27274905
                ],
                "xyz": [
                    -1.4020071270617478,
                    0.8094491529818385,
                    9.26185206489654
                ],
                "label": "O",
                "properties": {}
            },
            {
                "species": [
                    {
                        "element": "O",
                        "occu": 1
                    }
                ],
                "abc": [
                    0.27274905,
                    0.27274905,
                    0.7584009
                ],
                "xyz": [
                    0.0,
                    -1.6188983059636768,
                    9.26185206489654
                ],
                "label": "O",
                "properties": {}
            },
            {
                "species": [
                    {
                        "element": "O",
                        "occu": 1
                    }
                ],
                "abc": [
                    0.7584009,
                    0.27274905,
                    0.27274905
                ],
                "xyz": [
                    1.4020071270617478,
                    0.8094491529818385,
                    9.26185206489654
                ],
                "label": "O",
                "properties": {}
            }
        ]
    },
    "spacegroup": {
        "source": "spglib",
        "symbol": "R-3m",
        "number": 166,
        "point_group": "-3m",
        "crystal_system": "trigonal",
        "hall": "-R 3 2\""
    },
    "dielectric": {
        "epsilon_ionic": [
            [
                32.24583449,
                -1e-08,
                1e-08
            ],
            [
                -1e-08,
                32.2457508,
                -3.57e-06
            ],
            [
                1e-08,
                -3.57e-06,
                6.28894125
            ]
        ],
        "epsilon_ionic_avg": 23.593508846666676,
        "epsilon_ionic_eig": [
            32.245834490001194,
            32.24575079999932,
            6.288941249999507
        ],
        "epsilon_electronic": [
            [
                3.55390158,
                0.0,
                -0.0
            ],
            [
                0.0,
                3.55390263,
                -1.7e-07
            ],
            [
                -0.0,
                -1.7e-07,
                3.63470865
            ]
        ],
        "epsilon_electronic_avg": 3.58083762,
        "epsilon_electronic_eig": [
            3.6347086500003574,
            3.5539026299996426,
            3.55390158
        ]
    },
    "phonon": {
        "lowest_freq": -0.016787107313360406,
        "frequency": [
            -0.016787107313360406,
            -0.01678710483836429,
            -0.00859520187969581,
            1.0777988623353596,
            1.0777990108622144,
            2.988576624531189,
            2.988577057955111,
            3.016971375003837,
            3.0185960275375434,
            3.1024571730124255,
            3.102457629914996,
            3.590114044854239,
            3.5901145622308013,
            3.6668519638018555,
            4.1833526637099245,
            4.636123797206681,
            5.010292614573602,
            5.030814947109543,
            5.030815578657621,
            5.292644752593977,
            5.292645306721744,
            9.059634823893367,
            9.059634864358596,
            9.814163943552975,
            9.81416411787255,
            10.534249926207236,
            10.534250657023756,
            10.801069542381795,
            11.09988861609666,
            11.099889783063892,
            13.341384452946679,
            22.95583972787821,
            22.95584180395227,
            23.019350009550024,
            23.019352132982007,
            23.428454442072507,
            23.863390071005163,
            24.216087842334293,
            24.627885476337998
        ]
    },
    "born_effective_charge": {
        "avg_abs_trace": 2.3204376923076926,
        "tensors": [
            [
                [
                    2.75355,
                    -3e-05,
                    -9e-05
                ],
                [
                    0.0,
                    2.75359,
                    6e-05
                ],
                [
                    -0.0,
                    0.0,
                    3.1842
                ]
            ],
            [
                [
                    2.75355,
                    3e-05,
                    9e-05
                ],
                [
                    0.0,
                    2.75352,
                    -7e-05
                ],
                [
                    -0.0,
                    0.0,
                    3.18423
                ]
            ],
            [
                [
                    2.69977,
                    0.0,
                    -0.0
                ],
                [
                    0.0,
                    2.69976,
                    -0.0
                ],
                [
                    -0.0,
                    0.0,
                    2.70935
                ]
            ],
            [
                [
                    3.27534,
                    -3e-05,
                    7e-05
                ],
                [
                    0.0,
                    3.27535,
                    0.0
                ],
                [
                    -0.0,
                    -0.0,
                    3.32775
                ]
            ],
            [
                [
                    3.27534,
                    3e-05,
                    -7e-05
                ],
                [
                    0.0,
                    3.27531,
                    -0.0
                ],
                [
                    -0.0,
                    -0.0,
                    3.32794
                ]
            ],
            [
                [
                    -1.36789,
                    8e-05,
                    -7e-05
                ],
                [
                    0.0,
                    -1.36805,
                    -4e-05
                ],
                [
                    -0.0,
                    0.0,
                    -2.75996
                ]
            ],
            [
                [
                    -1.36789,
                    -8e-05,
                    7e-05
                ],
                [
                    0.0,
                    -1.36773,
                    4e-05
                ],
                [
                    -0.0,
                    0.0,
                    -2.75999
                ]
            ],
            [
                [
                    -1.64144,
                    1e-05,
                    -0.00012
                ],
                [
                    0.0,
                    -2.36584,
                    0.2972
                ],
                [
                    -0.0,
                    0.36358,
                    -1.70227
                ]
            ],
            [
                [
                    -2.18457,
                    0.31356,
                    0.2573
                ],
                [
                    0.31369,
                    -1.82252,
                    -0.14857
                ],
                [
                    0.31487,
                    -0.18179,
                    -1.70227
                ]
            ],
            [
                [
                    -2.18486,
                    -0.31375,
                    -0.25745
                ],
                [
                    -0.31369,
                    -1.82252,
                    -0.14857
                ],
                [
                    -0.31487,
                    -0.18179,
                    -1.70227
                ]
            ],
            [
                [
                    -2.18486,
                    0.31375,
                    0.25745
                ],
                [
                    0.31361,
                    -1.82255,
                    -0.14861
                ],
                [
                    0.31489,
                    -0.1818,
                    -1.70224
                ]
            ],
            [
                [
                    -1.64144,
                    -1e-05,
                    0.00012
                ],
                [
                    0.0,
                    -2.36576,
                    0.29718
                ],
                [
                    -0.0,
                    0.3636,
                    -1.70224
                ]
            ],
            [
                [
                    -2.18457,
                    -0.31356,
                    -0.2573
                ],
                [
                    -0.31361,
                    -1.82255,
                    -0.14861
                ],
                [
                    -0.31489,
                    -0.1818,
                    -1.70224
                ]
            ]
        ]
    },
    "band_gap": 4.067399999999999,
    "is_direct": false,
    "formula": "Ba3(AsO4)2"
}