{
    "mp_id": "mp-9066",
    "nelements": 4,
    "nsites": 16,
    "elements": [
        "As",
        "Li",
        "Na",
        "O"
    ],
    "structure": {
        "@module": "pymatgen.core.structure",
        "@class": "Structure",
        "charge": null,
        "lattice": {
            "matrix": [
                [
                    6.9471111,
                    0.0,
                    0.0
                ],
                [
                    0.0,
                    5.24595414,
                    0.0
                ],
                [
                    0.0,
                    0.0,
                    5.05320205
                ]
            ],
            "a": 6.9471111,
            "b": 5.24595414,
            "c": 5.05320205,
            "alpha": 90.0,
            "beta": 90.0,
            "gamma": 90.0,
            "volume": 184.1600387268483
        },
        "sites": [
            {
                "species": [
                    {
                        "element": "Na",
                        "occu": 1
                    }
                ],
                "abc": [
                    0.0,
                    0.79699523,
                    0.52160021
                ],
                "xyz": [
                    0.0,
                    4.181000426378753,
                    2.6357512504524307
                ],
                "label": "Na",
                "properties": {}
            },
            {
                "species": [
                    {
                        "element": "Na",
                        "occu": 1
                    }
                ],
                "abc": [
                    0.5,
                    0.20300477,
                    0.02160021
                ],
                "xyz": [
                    3.47355555,
                    1.064953713621248,
                    0.10915022545243051
                ],
                "label": "Na",
                "properties": {}
            },
            {
                "species": [
                    {
                        "element": "Li",
                        "occu": 1
                    }
                ],
                "abc": [
                    0.25064092,
                    0.32254446,
                    0.5083971
                ],
                "xyz": [
                    1.7412303174462118,
                    1.6920534452710643,
                    2.5690332679340555
                ],
                "label": "Li",
                "properties": {}
            },
            {
                "species": [
                    {
                        "element": "Li",
                        "occu": 1
                    }
                ],
                "abc": [
                    0.75064092,
                    0.67745554,
                    0.0083971
                ],
                "xyz": [
                    5.214785867446213,
                    3.5539006947289358,
                    0.042432242934055
                ],
                "label": "Li",
                "properties": {}
            },
            {
                "species": [
                    {
                        "element": "Li",
                        "occu": 1
                    }
                ],
                "abc": [
                    0.74935908,
                    0.32254446,
                    0.5083971
                ],
                "xyz": [
                    5.205880782553788,
                    1.6920534452710643,
                    2.5690332679340555
                ],
                "label": "Li",
                "properties": {}
            },
            {
                "species": [
                    {
                        "element": "Li",
                        "occu": 1
                    }
                ],
                "abc": [
                    0.24935908,
                    0.67745554,
                    0.0083971
                ],
                "xyz": [
                    1.7323252325537881,
                    3.5539006947289358,
                    0.042432242934055
                ],
                "label": "Li",
                "properties": {}
            },
            {
                "species": [
                    {
                        "element": "As",
                        "occu": 1
                    }
                ],
                "abc": [
                    0.5,
                    0.81190485,
                    0.4990873
                ],
                "xyz": [
                    3.47355555,
                    4.259215609143579,
                    2.5219889674889653
                ],
                "label": "As",
                "properties": {}
            },
            {
                "species": [
                    {
                        "element": "As",
                        "occu": 1
                    }
                ],
                "abc": [
                    0.0,
                    0.18809515,
                    0.9990873
                ],
                "xyz": [
                    0.0,
                    0.9867385308564209,
                    5.0485899924889654
                ],
                "label": "As",
                "properties": {}
            },
            {
                "species": [
                    {
                        "element": "O",
                        "occu": 1
                    }
                ],
                "abc": [
                    0.0,
                    0.86642316,
                    0.06696913
                ],
                "xyz": [
                    0.0,
                    4.545216163193882,
                    0.33840854500271655
                ],
                "label": "O",
                "properties": {}
            },
            {
                "species": [
                    {
                        "element": "O",
                        "occu": 1
                    }
                ],
                "abc": [
                    0.0,
                    0.22542086,
                    0.66096641
                ],
                "xyz": [
                    0.0,
                    1.1825474937593605,
                    3.3399968179931405
                ],
                "label": "O",
                "properties": {}
            },
            {
                "species": [
                    {
                        "element": "O",
                        "occu": 1
                    }
                ],
                "abc": [
                    0.5,
                    0.13357684,
                    0.56696913
                ],
                "xyz": [
                    3.47355555,
                    0.7007379768061176,
                    2.8650095700027167
                ],
                "label": "O",
                "properties": {}
            },
            {
                "species": [
                    {
                        "element": "O",
                        "occu": 1
                    }
                ],
                "abc": [
                    0.5,
                    0.77457914,
                    0.16096641
                ],
                "xyz": [
                    3.47355555,
                    4.06340664624064,
                    0.8133957929931406
                ],
                "label": "O",
                "properties": {}
            },
            {
                "species": [
                    {
                        "element": "O",
                        "occu": 1
                    }
                ],
                "abc": [
                    0.20173304,
                    0.32841031,
                    0.12734238
                ],
                "xyz": [
                    1.401461841420744,
                    1.7228254253631834,
                    0.643486775667879
                ],
                "label": "O",
                "properties": {}
            },
            {
                "species": [
                    {
                        "element": "O",
                        "occu": 1
                    }
                ],
                "abc": [
                    0.29826696,
                    0.67158969,
                    0.62734238
                ],
                "xyz": [
                    2.0720937085792563,
                    3.5231287146368166,
                    3.170087800667879
                ],
                "label": "O",
                "properties": {}
            },
            {
                "species": [
                    {
                        "element": "O",
                        "occu": 1
                    }
                ],
                "abc": [
                    0.70173304,
                    0.67158969,
                    0.62734238
                ],
                "xyz": [
                    4.875017391420744,
                    3.5231287146368166,
                    3.170087800667879
                ],
                "label": "O",
                "properties": {}
            },
            {
                "species": [
                    {
                        "element": "O",
                        "occu": 1
                    }
                ],
                "abc": [
                    0.79826696,
                    0.32841031,
                    0.12734238
                ],
                "xyz": [
                    5.545649258579256,
                    1.7228254253631834,
                    0.643486775667879
                ],
                "label": "O",
                "properties": {}
            }
        ]
    },
    "spacegroup": {
        "source": "spglib",
        "symbol": "Pmn2_1",
        "number": 31,
        "point_group": "mm2",
        "crystal_system": "orthorhombic",
        "hall": "P 2ac -2"
    },
    "dielectric": {
        "epsilon_ionic": [
            [
                2.40395238,
                -0.0,
                -1e-08
            ],
            [
                -0.0,
                3.54338749,
                7e-08
            ],
            [
                -1e-08,
                7e-08,
                3.35854444
            ]
        ],
        "epsilon_ionic_avg": 3.1019614366666666,
        "epsilon_ionic_eig": [
            2.40395238,
            3.3585444399999718,
            3.543387490000027
        ],
        "epsilon_electronic": [
            [
                2.66397078,
                0.0,
                0.0
            ],
            [
                0.0,
                2.72771444,
                0.0
            ],
            [
                0.0,
                0.0,
                2.7308392
            ]
        ],
        "epsilon_electronic_avg": 2.7075081400000003,
        "epsilon_electronic_eig": [
            2.66397078,
            2.72771444,
            2.7308392
        ]
    },
    "phonon": {
        "lowest_freq": -0.21331540901429336,
        "frequency": [
            -0.21331540901429336,
            -0.028346052890370475,
            -0.011460377866782187,
            3.6695868029448064,
            3.855397256857313,
            4.080734783440847,
            4.281658038803512,
            4.982277254580833,
            5.279471124219557,
            5.447318210059314,
            5.803381494387626,
            6.079589266220805,
            6.243425239082689,
            6.479507467670327,
            6.623961409779756,
            8.37701264744181,
            8.774988288199642,
            8.890147884617353,
            9.309306685080205,
            10.050008004243322,
            10.104089898703098,
            10.366923768291127,
            10.601584436143972,
            10.881671600777056,
            11.315012069596238,
            11.37956800236863,
            11.51293704726675,
            11.922475840687607,
            12.370397627686451,
            12.747100618409599,
            12.749720876089158,
            12.85842999245085,
            13.352661777308917,
            13.448445872101509,
            13.516353965560054,
            13.875688448362263,
            13.89592480056727,
            14.06387601911274,
            14.407742868474154,
            14.441362144881358,
            23.190329950365065,
            23.204268437822776,
            23.46688541322423,
            23.500171081889125,
            24.025841296661554,
            24.17234744102262,
            24.752921075376268,
            24.977946323056067
        ]
    },
    "born_effective_charge": {
        "avg_abs_trace": 1.5359833333333333,
        "tensors": [
            [
                [
                    1.07985,
                    0.0,
                    -0.0
                ],
                [
                    0.0,
                    1.03903,
                    0.01831
                ],
                [
                    0.0,
                    0.06108,
                    1.07281
                ]
            ],
            [
                [
                    1.07985,
                    -0.0,
                    -0.0
                ],
                [
                    0.0,
                    1.03903,
                    -0.01831
                ],
                [
                    0.0,
                    -0.06108,
                    1.07281
                ]
            ],
            [
                [
                    1.01419,
                    0.09518,
                    0.11669
                ],
                [
                    -0.096,
                    1.05618,
                    0.04975
                ],
                [
                    -0.12692,
                    -0.05206,
                    1.0302
                ]
            ],
            [
                [
                    1.01419,
                    -0.09518,
                    0.11669
                ],
                [
                    0.096,
                    1.05618,
                    -0.04975
                ],
                [
                    -0.12692,
                    0.05206,
                    1.0302
                ]
            ],
            [
                [
                    1.01419,
                    -0.09518,
                    -0.11669
                ],
                [
                    0.096,
                    1.05618,
                    0.04975
                ],
                [
                    0.12692,
                    -0.05206,
                    1.0302
                ]
            ],
            [
                [
                    1.01419,
                    0.09518,
                    -0.11669
                ],
                [
                    -0.096,
                    1.05618,
                    -0.04975
                ],
                [
                    0.12692,
                    0.05206,
                    1.0302
                ]
            ],
            [
                [
                    2.98704,
                    0.0,
                    0.0
                ],
                [
                    0.0,
                    2.94125,
                    0.01622
                ],
                [
                    0.0,
                    -0.03054,
                    3.11068
                ]
            ],
            [
                [
                    2.98704,
                    -0.0,
                    0.0
                ],
                [
                    0.0,
                    2.94125,
                    -0.01622
                ],
                [
                    0.0,
                    0.03054,
                    3.11068
                ]
            ],
            [
                [
                    -1.31491,
                    0.0,
                    0.0
                ],
                [
                    0.0,
                    -2.02727,
                    0.14251
                ],
                [
                    0.0,
                    0.12768,
                    -1.22946
                ]
            ],
            [
                [
                    -1.32095,
                    -0.0,
                    -0.0
                ],
                [
                    0.0,
                    -1.16679,
                    0.12412
                ],
                [
                    0.0,
                    0.1222,
                    -2.0784
                ]
            ],
            [
                [
                    -1.31491,
                    -0.0,
                    0.0
                ],
                [
                    0.0,
                    -2.02727,
                    -0.14251
                ],
                [
                    0.0,
                    -0.12768,
                    -1.22946
                ]
            ],
            [
                [
                    -1.32095,
                    0.0,
                    -0.0
                ],
                [
                    0.0,
                    -1.16679,
                    -0.12412
                ],
                [
                    0.0,
                    -0.1222,
                    -2.0784
                ]
            ],
            [
                [
                    -1.7297,
                    -0.36813,
                    -0.30257
                ],
                [
                    -0.26945,
                    -1.44929,
                    -0.08434
                ],
                [
                    -0.31253,
                    -0.10449,
                    -1.46802
                ]
            ],
            [
                [
                    -1.7297,
                    -0.36813,
                    0.30257
                ],
                [
                    -0.26945,
                    -1.44929,
                    0.08434
                ],
                [
                    0.31253,
                    0.10449,
                    -1.46802
                ]
            ],
            [
                [
                    -1.7297,
                    0.36813,
                    -0.30257
                ],
                [
                    0.26945,
                    -1.44929,
                    0.08434
                ],
                [
                    -0.31253,
                    0.10449,
                    -1.46802
                ]
            ],
            [
                [
                    -1.7297,
                    0.36813,
                    0.30257
                ],
                [
                    0.26945,
                    -1.44929,
                    -0.08434
                ],
                [
                    0.31253,
                    -0.10449,
                    -1.46802
                ]
            ]
        ]
    },
    "band_gap": 4.0051,
    "is_direct": false,
    "formula": "NaLi2AsO4"
}