{
    "mp_id": "mp-978114",
    "nelements": 2,
    "nsites": 22,
    "elements": [
        "O",
        "Sn"
    ],
    "structure": {
        "@module": "pymatgen.core.structure",
        "@class": "Structure",
        "charge": null,
        "lattice": {
            "matrix": [
                [
                    13.35408881,
                    0.0,
                    -0.00249635
                ],
                [
                    0.0,
                    4.84942635,
                    0.0
                ],
                [
                    -0.27094532,
                    0.0,
                    5.81792647
                ]
            ],
            "a": 13.354089043327912,
            "b": 4.84942635,
            "c": 5.8242321190657025,
            "alpha": 90.0,
            "beta": 92.67709267943145,
            "gamma": 90.0,
            "volume": 376.7637191582923
        },
        "sites": [
            {
                "species": [
                    {
                        "element": "Sn",
                        "occu": 1
                    }
                ],
                "abc": [
                    0.10093595,
                    0.00223674,
                    0.1807585
                ],
                "xyz": [
                    1.2989319707964995,
                    0.010846905894099,
                    1.0513876903687123
                ],
                "label": "Sn",
                "properties": {}
            },
            {
                "species": [
                    {
                        "element": "Sn",
                        "occu": 1
                    }
                ],
                "abc": [
                    0.30062446,
                    0.9977116,
                    0.64987147
                ],
                "xyz": [
                    3.8384861039002725,
                    4.83832892274066,
                    3.78015396354009
                ],
                "label": "Sn",
                "properties": {}
            },
            {
                "species": [
                    {
                        "element": "Sn",
                        "occu": 1
                    }
                ],
                "abc": [
                    0.10093595,
                    0.49776326,
                    0.6807585
                ],
                "xyz": [
                    1.1634593107964994,
                    2.4138662691059007,
                    3.960350925368713
                ],
                "label": "Sn",
                "properties": {}
            },
            {
                "species": [
                    {
                        "element": "Sn",
                        "occu": 1
                    }
                ],
                "abc": [
                    0.89906405,
                    0.50223674,
                    0.3192415
                ],
                "xyz": [
                    11.9196841792035,
                    2.4355600808940987,
                    1.8550791946312877
                ],
                "label": "Sn",
                "properties": {}
            },
            {
                "species": [
                    {
                        "element": "Sn",
                        "occu": 1
                    }
                ],
                "abc": [
                    0.69937554,
                    0.4977116,
                    0.85012853
                ],
                "xyz": [
                    9.109184726099729,
                    2.4136157477406597,
                    4.94423939145991
                ],
                "label": "Sn",
                "properties": {}
            },
            {
                "species": [
                    {
                        "element": "Sn",
                        "occu": 1
                    }
                ],
                "abc": [
                    0.89906405,
                    0.99776326,
                    0.8192415
                ],
                "xyz": [
                    11.7842115192035,
                    4.838579444105901,
                    4.764042429631288
                ],
                "label": "Sn",
                "properties": {}
            },
            {
                "species": [
                    {
                        "element": "Sn",
                        "occu": 1
                    }
                ],
                "abc": [
                    0.69937554,
                    0.0022884,
                    0.35012853
                ],
                "xyz": [
                    9.244657386099728,
                    0.011097427259339999,
                    2.03527615645991
                ],
                "label": "Sn",
                "properties": {}
            },
            {
                "species": [
                    {
                        "element": "Sn",
                        "occu": 1
                    }
                ],
                "abc": [
                    0.5,
                    0.5,
                    0.5
                ],
                "xyz": [
                    6.541571745000001,
                    2.424713175,
                    2.9077150599999997
                ],
                "label": "Sn",
                "properties": {}
            },
            {
                "species": [
                    {
                        "element": "Sn",
                        "occu": 1
                    }
                ],
                "abc": [
                    0.30062446,
                    0.5022884,
                    0.14987147
                ],
                "xyz": [
                    3.9739587639002725,
                    2.4358106022593398,
                    0.8711907285400899
                ],
                "label": "Sn",
                "properties": {}
            },
            {
                "species": [
                    {
                        "element": "Sn",
                        "occu": 1
                    }
                ],
                "abc": [
                    0.5,
                    0.0,
                    0.0
                ],
                "xyz": [
                    6.677044405,
                    0.0,
                    -0.001248175
                ],
                "label": "Sn",
                "properties": {}
            },
            {
                "species": [
                    {
                        "element": "O",
                        "occu": 1
                    }
                ],
                "abc": [
                    0.35779096,
                    0.17772498,
                    0.96082382
                ],
                "xyz": [
                    4.5176415378816355,
                    0.861864201065223,
                    5.589109163921519
                ],
                "label": "O",
                "properties": {}
            },
            {
                "species": [
                    {
                        "element": "O",
                        "occu": 1
                    }
                ],
                "abc": [
                    0.64220904,
                    0.82227502,
                    0.03917618
                ],
                "xyz": [
                    8.565501952118366,
                    3.9875621489347766,
                    0.22632095607848057
                ],
                "label": "O",
                "properties": {}
            },
            {
                "species": [
                    {
                        "element": "O",
                        "occu": 1
                    }
                ],
                "abc": [
                    0.64220904,
                    0.67772498,
                    0.53917618
                ],
                "xyz": [
                    8.430029292118364,
                    3.2865773760652233,
                    3.1352841910784806
                ],
                "label": "O",
                "properties": {}
            },
            {
                "species": [
                    {
                        "element": "O",
                        "occu": 1
                    }
                ],
                "abc": [
                    0.55895314,
                    0.19778889,
                    0.29200944
                ],
                "xyz": [
                    7.385191281024543,
                    0.9591626549032515,
                    1.6974941077948378
                ],
                "label": "O",
                "properties": {}
            },
            {
                "species": [
                    {
                        "element": "O",
                        "occu": 1
                    }
                ],
                "abc": [
                    0.44104686,
                    0.80221111,
                    0.70799056
                ],
                "xyz": [
                    5.697952208975458,
                    3.8902636950967486,
                    4.1179360122051625
                ],
                "label": "O",
                "properties": {}
            },
            {
                "species": [
                    {
                        "element": "O",
                        "occu": 1
                    }
                ],
                "abc": [
                    0.95496327,
                    0.3210813,
                    0.62898833
                ],
                "xyz": [
                    12.582242873519894,
                    1.557060116712255,
                    3.65702393186903
                ],
                "label": "O",
                "properties": {}
            },
            {
                "species": [
                    {
                        "element": "O",
                        "occu": 1
                    }
                ],
                "abc": [
                    0.95496327,
                    0.1789187,
                    0.12898833
                ],
                "xyz": [
                    12.717715533519893,
                    0.8676530582877451,
                    0.7480606968690307
                ],
                "label": "O",
                "properties": {}
            },
            {
                "species": [
                    {
                        "element": "O",
                        "occu": 1
                    }
                ],
                "abc": [
                    0.35779096,
                    0.32227502,
                    0.46082382
                ],
                "xyz": [
                    4.653114197881635,
                    1.562848973934777,
                    2.6801459289215193
                ],
                "label": "O",
                "properties": {}
            },
            {
                "species": [
                    {
                        "element": "O",
                        "occu": 1
                    }
                ],
                "abc": [
                    0.04503673,
                    0.6789187,
                    0.37101167
                ],
                "xyz": [
                    0.5009006164801069,
                    3.292366233287745,
                    2.1584061881309693
                ],
                "label": "O",
                "properties": {}
            },
            {
                "species": [
                    {
                        "element": "O",
                        "occu": 1
                    }
                ],
                "abc": [
                    0.04503673,
                    0.8210813,
                    0.87101167
                ],
                "xyz": [
                    0.36542795648010684,
                    3.981773291712255,
                    5.067369423130969
                ],
                "label": "O",
                "properties": {}
            },
            {
                "species": [
                    {
                        "element": "O",
                        "occu": 1
                    }
                ],
                "abc": [
                    0.44104686,
                    0.69778889,
                    0.20799056
                ],
                "xyz": [
                    5.833424868975458,
                    3.383875829903251,
                    1.2089727772051622
                ],
                "label": "O",
                "properties": {}
            },
            {
                "species": [
                    {
                        "element": "O",
                        "occu": 1
                    }
                ],
                "abc": [
                    0.55895314,
                    0.30221111,
                    0.79200944
                ],
                "xyz": [
                    7.249718621024543,
                    1.4655505200967485,
                    4.606457342794838
                ],
                "label": "O",
                "properties": {}
            }
        ]
    },
    "spacegroup": {
        "source": "spglib",
        "symbol": "P2_1/c",
        "number": 14,
        "point_group": "2/m",
        "crystal_system": "monoclinic",
        "hall": "-P 2ybc"
    },
    "dielectric": {
        "epsilon_ionic": [
            [
                6.2432855,
                1.59e-06,
                -0.19012672
            ],
            [
                1.59e-06,
                6.82168607,
                3.78e-06
            ],
            [
                -0.19012672,
                3.78e-06,
                5.42102263
            ]
        ],
        "epsilon_ionic_avg": 6.161998066666668,
        "epsilon_ionic_eig": [
            5.379189136431206,
            6.285118993556497,
            6.821686070012302
        ],
        "epsilon_electronic": [
            [
                6.49616343,
                0.0,
                0.38134889
            ],
            [
                0.0,
                7.36845681,
                0.0
            ],
            [
                0.38134357,
                0.0,
                6.87166542
            ]
        ],
        "epsilon_electronic_avg": 6.91209522,
        "epsilon_electronic_eig": [
            6.258855154719223,
            7.108973695280778,
            7.36845681
        ]
    },
    "phonon": {
        "lowest_freq": -0.04296257958413967,
        "frequency": [
            -0.04296257958413967,
            -0.033538829270445374,
            -0.01854552457342925,
            1.1832301625529513,
            1.2459271097222984,
            1.4581611342730498,
            1.8444120472786614,
            2.114428571156479,
            2.3609615419709407,
            2.3853287273533588,
            2.496946556604063,
            2.522679338813381,
            2.699555266783347,
            2.857360512103025,
            2.925953209414421,
            3.392630927863065,
            3.4335085744383256,
            3.7897931682451196,
            3.810944329806787,
            3.943280949805107,
            4.146234326975612,
            4.2820151580085835,
            4.577360696782358,
            4.940183125127308,
            5.039013534061557,
            5.21203048899273,
            5.2989028815410055,
            5.558729193351215,
            5.9060309640352235,
            6.140334398345949,
            6.30938863083229,
            6.436876750839525,
            6.450592717832304,
            6.530525911174377,
            6.570172178795441,
            6.574730530633053,
            7.111780618677406,
            7.305827812056817,
            7.487771081890513,
            8.164716063709609,
            8.381107523466147,
            9.124309514166162,
            12.641045656130599,
            12.683513796007333,
            12.99522393078841,
            13.01177949784212,
            13.013643735762642,
            13.186862415337206,
            13.904241704809063,
            14.20996666045787,
            14.263859972802214,
            14.286196089254243,
            14.648782897315007,
            15.00036261855255,
            15.620797478408283,
            16.223090044455223,
            16.635741465826545,
            16.89690138122954,
            17.245392623688158,
            17.35436476661275,
            17.99298802910044,
            18.132749576674367,
            18.967047068075473,
            19.061369267379906,
            19.57571526217594,
            20.814549561604604
        ]
    },
    "born_effective_charge": {
        "avg_abs_trace": 2.860512424242424,
        "tensors": [
            [
                [
                    2.88503,
                    0.0574,
                    0.27032
                ],
                [
                    -0.12004,
                    2.72444,
                    -0.3206
                ],
                [
                    0.22115,
                    -0.33477,
                    2.62309
                ]
            ],
            [
                [
                    3.13492,
                    -0.10555,
                    0.3206
                ],
                [
                    -0.06855,
                    2.63068,
                    -0.10811
                ],
                [
                    0.41683,
                    -0.36578,
                    2.67923
                ]
            ],
            [
                [
                    2.88503,
                    -0.0574,
                    0.27032
                ],
                [
                    0.12515,
                    2.7268,
                    0.31775
                ],
                [
                    0.22115,
                    0.33477,
                    2.62309
                ]
            ],
            [
                [
                    2.88465,
                    -0.05754,
                    0.27057
                ],
                [
                    0.12004,
                    2.72444,
                    0.3206
                ],
                [
                    0.22065,
                    0.33622,
                    2.62426
                ]
            ],
            [
                [
                    3.13558,
                    0.10564,
                    0.32033
                ],
                [
                    0.06855,
                    2.63068,
                    0.10811
                ],
                [
                    0.41801,
                    0.3642,
                    2.67792
                ]
            ],
            [
                [
                    2.88465,
                    0.05754,
                    0.27057
                ],
                [
                    -0.12515,
                    2.7268,
                    -0.31775
                ],
                [
                    0.22065,
                    -0.33622,
                    2.62426
                ]
            ],
            [
                [
                    3.13558,
                    -0.10564,
                    0.32033
                ],
                [
                    -0.06289,
                    2.62929,
                    -0.11057
                ],
                [
                    0.41801,
                    -0.3642,
                    2.67792
                ]
            ],
            [
                [
                    5.40555,
                    -0.702,
                    0.33193
                ],
                [
                    -0.11,
                    4.22305,
                    1.14798
                ],
                [
                    0.1631,
                    0.49641,
                    4.21397
                ]
            ],
            [
                [
                    3.13492,
                    0.10555,
                    0.3206
                ],
                [
                    0.06289,
                    2.62929,
                    0.11057
                ],
                [
                    0.41683,
                    0.36578,
                    2.67923
                ]
            ],
            [
                [
                    5.40555,
                    0.702,
                    0.33193
                ],
                [
                    0.11,
                    4.22305,
                    -1.14798
                ],
                [
                    0.1631,
                    -0.49641,
                    4.21397
                ]
            ],
            [
                [
                    -2.69303,
                    0.60277,
                    -0.15744
                ],
                [
                    0.65131,
                    -2.59,
                    -0.86988
                ],
                [
                    -0.17399,
                    -1.3074,
                    -2.69237
                ]
            ],
            [
                [
                    -2.69313,
                    0.60254,
                    -0.1579
                ],
                [
                    0.6489,
                    -2.59091,
                    -0.87057
                ],
                [
                    -0.17414,
                    -1.30908,
                    -2.6932
                ]
            ],
            [
                [
                    -2.69313,
                    -0.60254,
                    -0.1579
                ],
                [
                    -0.65131,
                    -2.59,
                    0.86988
                ],
                [
                    -0.17414,
                    1.30908,
                    -2.6932
                ]
            ],
            [
                [
                    -3.13424,
                    0.62788,
                    -0.3241
                ],
                [
                    0.88217,
                    -2.17503,
                    -0.54963
                ],
                [
                    -0.29817,
                    -0.46116,
                    -2.08279
                ]
            ],
            [
                [
                    -3.13408,
                    0.62794,
                    -0.32371
                ],
                [
                    0.88205,
                    -2.17482,
                    -0.55021
                ],
                [
                    -0.29756,
                    -0.46162,
                    -2.08297
                ]
            ],
            [
                [
                    -2.89556,
                    -0.67352,
                    -0.27527
                ],
                [
                    -1.2973,
                    -2.7028,
                    0.98749
                ],
                [
                    -0.24791,
                    1.39388,
                    -2.63318
                ]
            ],
            [
                [
                    -2.89556,
                    0.67352,
                    -0.27527
                ],
                [
                    1.30076,
                    -2.70069,
                    -0.98529
                ],
                [
                    -0.24791,
                    -1.39388,
                    -2.63318
                ]
            ],
            [
                [
                    -2.69303,
                    -0.60277,
                    -0.15744
                ],
                [
                    -0.6489,
                    -2.59091,
                    0.87057
                ],
                [
                    -0.17399,
                    1.3074,
                    -2.69237
                ]
            ],
            [
                [
                    -2.89569,
                    -0.67332,
                    -0.27534
                ],
                [
                    -1.30076,
                    -2.70069,
                    0.98529
                ],
                [
                    -0.24795,
                    1.39559,
                    -2.63396
                ]
            ],
            [
                [
                    -2.89569,
                    0.67332,
                    -0.27534
                ],
                [
                    1.2973,
                    -2.7028,
                    -0.98749
                ],
                [
                    -0.24795,
                    -1.39559,
                    -2.63396
                ]
            ],
            [
                [
                    -3.13408,
                    -0.62794,
                    -0.32371
                ],
                [
                    -0.88217,
                    -2.17503,
                    0.54963
                ],
                [
                    -0.29756,
                    0.46162,
                    -2.08297
                ]
            ],
            [
                [
                    -3.13424,
                    -0.62788,
                    -0.3241
                ],
                [
                    -0.88205,
                    -2.17482,
                    0.55021
                ],
                [
                    -0.29817,
                    0.46116,
                    -2.08279
                ]
            ]
        ]
    },
    "band_gap": 1.3972000000000002,
    "is_direct": false,
    "formula": "Sn5O6"
}