{
    "mp_id": "mp-9747",
    "nelements": 3,
    "nsites": 24,
    "elements": [
        "B",
        "O",
        "Pb"
    ],
    "structure": {
        "@module": "pymatgen.core.structure",
        "@class": "Structure",
        "charge": null,
        "lattice": {
            "matrix": [
                [
                    10.83604717,
                    0.0,
                    0.0
                ],
                [
                    0.0,
                    4.44678143,
                    0.0
                ],
                [
                    0.0,
                    0.0,
                    4.23863001
                ]
            ],
            "a": 10.83604717,
            "b": 4.44678143,
            "c": 4.23863001,
            "alpha": 90.0,
            "beta": 90.0,
            "gamma": 90.0,
            "volume": 204.24064762107162
        },
        "sites": [
            {
                "species": [
                    {
                        "element": "B",
                        "occu": 1
                    }
                ],
                "abc": [
                    0.24865191,
                    0.17612231,
                    0.99825799
                ],
                "xyz": [
                    2.694403825670595,
                    0.7831774175167032,
                    4.2312462741362795
                ],
                "label": "B",
                "properties": {}
            },
            {
                "species": [
                    {
                        "element": "B",
                        "occu": 1
                    }
                ],
                "abc": [
                    0.25134809,
                    0.82387769,
                    0.49825799
                ],
                "xyz": [
                    2.723619759329406,
                    3.6636040124832965,
                    2.1119312691362797
                ],
                "label": "B",
                "properties": {}
            },
            {
                "species": [
                    {
                        "element": "B",
                        "occu": 1
                    }
                ],
                "abc": [
                    0.37824689,
                    0.67437291,
                    0.02306016
                ],
                "xyz": [
                    4.098701141945802,
                    2.9987889330830613,
                    0.0977434862114016
                ],
                "label": "B",
                "properties": {}
            },
            {
                "species": [
                    {
                        "element": "B",
                        "occu": 1
                    }
                ],
                "abc": [
                    0.12175311,
                    0.32562709,
                    0.52306016
                ],
                "xyz": [
                    1.3193224430541988,
                    1.4479924969169387,
                    2.2170584912114015
                ],
                "label": "B",
                "properties": {}
            },
            {
                "species": [
                    {
                        "element": "B",
                        "occu": 1
                    }
                ],
                "abc": [
                    0.87824689,
                    0.32562709,
                    0.52306016
                ],
                "xyz": [
                    9.516724726945801,
                    1.4479924969169387,
                    2.2170584912114015
                ],
                "label": "B",
                "properties": {}
            },
            {
                "species": [
                    {
                        "element": "B",
                        "occu": 1
                    }
                ],
                "abc": [
                    0.62175311,
                    0.67437291,
                    0.02306016
                ],
                "xyz": [
                    6.737346028054199,
                    2.9987889330830613,
                    0.0977434862114016
                ],
                "label": "B",
                "properties": {}
            },
            {
                "species": [
                    {
                        "element": "B",
                        "occu": 1
                    }
                ],
                "abc": [
                    0.74865191,
                    0.82387769,
                    0.49825799
                ],
                "xyz": [
                    8.112427410670595,
                    3.6636040124832965,
                    2.1119312691362797
                ],
                "label": "B",
                "properties": {}
            },
            {
                "species": [
                    {
                        "element": "B",
                        "occu": 1
                    }
                ],
                "abc": [
                    0.75134809,
                    0.17612231,
                    0.99825799
                ],
                "xyz": [
                    8.141643344329406,
                    0.7831774175167032,
                    4.2312462741362795
                ],
                "label": "B",
                "properties": {}
            },
            {
                "species": [
                    {
                        "element": "Pb",
                        "occu": 1
                    }
                ],
                "abc": [
                    0.5,
                    0.19422338,
                    0.52815054
                ],
                "xyz": [
                    5.418023585,
                    0.8636689194558334,
                    2.238634728641705
                ],
                "label": "Pb",
                "properties": {}
            },
            {
                "species": [
                    {
                        "element": "Pb",
                        "occu": 1
                    }
                ],
                "abc": [
                    0.0,
                    0.80577662,
                    0.02815054
                ],
                "xyz": [
                    0.0,
                    3.583112510544167,
                    0.1193197236417054
                ],
                "label": "Pb",
                "properties": {}
            },
            {
                "species": [
                    {
                        "element": "O",
                        "occu": 1
                    }
                ],
                "abc": [
                    0.14330413,
                    0.64095211,
                    0.4496916
                ],
                "xyz": [
                    1.5528503123358122,
                    2.8501739402673167,
                    1.906076311004916
                ],
                "label": "O",
                "properties": {}
            },
            {
                "species": [
                    {
                        "element": "O",
                        "occu": 1
                    }
                ],
                "abc": [
                    0.36417343,
                    0.73011446,
                    0.35775124
                ],
                "xyz": [
                    3.9462004655406937,
                    3.2466594225024776,
                    1.5163751419787124
                ],
                "label": "O",
                "properties": {}
            },
            {
                "species": [
                    {
                        "element": "O",
                        "occu": 1
                    }
                ],
                "abc": [
                    0.13582657,
                    0.26988554,
                    0.85775124
                ],
                "xyz": [
                    1.471823119459307,
                    1.200122007497522,
                    3.635690146978712
                ],
                "label": "O",
                "properties": {}
            },
            {
                "species": [
                    {
                        "element": "O",
                        "occu": 1
                    }
                ],
                "abc": [
                    0.86417343,
                    0.26988554,
                    0.85775124
                ],
                "xyz": [
                    9.364224050540694,
                    1.200122007497522,
                    3.635690146978712
                ],
                "label": "O",
                "properties": {}
            },
            {
                "species": [
                    {
                        "element": "O",
                        "occu": 1
                    }
                ],
                "abc": [
                    0.72016869,
                    0.87025184,
                    0.85296376
                ],
                "xyz": [
                    7.803781895197107,
                    3.8698197215353307,
                    3.615397790578437
                ],
                "label": "O",
                "properties": {}
            },
            {
                "species": [
                    {
                        "element": "O",
                        "occu": 1
                    }
                ],
                "abc": [
                    0.77983131,
                    0.12974816,
                    0.35296376
                ],
                "xyz": [
                    8.450288859802894,
                    0.5769617084646688,
                    1.4960827855784375
                ],
                "label": "O",
                "properties": {}
            },
            {
                "species": [
                    {
                        "element": "O",
                        "occu": 1
                    }
                ],
                "abc": [
                    0.22016869,
                    0.12974816,
                    0.35296376
                ],
                "xyz": [
                    2.3857583101971076,
                    0.5769617084646688,
                    1.4960827855784375
                ],
                "label": "O",
                "properties": {}
            },
            {
                "species": [
                    {
                        "element": "O",
                        "occu": 1
                    }
                ],
                "abc": [
                    0.27983131,
                    0.87025184,
                    0.85296376
                ],
                "xyz": [
                    3.0322652748028927,
                    3.8698197215353307,
                    3.615397790578437
                ],
                "label": "O",
                "properties": {}
            },
            {
                "species": [
                    {
                        "element": "O",
                        "occu": 1
                    }
                ],
                "abc": [
                    0.64330413,
                    0.35904789,
                    0.9496916
                ],
                "xyz": [
                    6.970873897335812,
                    1.5966074897326825,
                    4.0253913160049155
                ],
                "label": "O",
                "properties": {}
            },
            {
                "species": [
                    {
                        "element": "O",
                        "occu": 1
                    }
                ],
                "abc": [
                    0.85669587,
                    0.64095211,
                    0.4496916
                ],
                "xyz": [
                    9.283196857664189,
                    2.8501739402673167,
                    1.906076311004916
                ],
                "label": "O",
                "properties": {}
            },
            {
                "species": [
                    {
                        "element": "O",
                        "occu": 1
                    }
                ],
                "abc": [
                    0.5,
                    0.76764982,
                    0.91420094
                ],
                "xyz": [
                    5.418023585,
                    3.4135709643188425,
                    3.874959539454209
                ],
                "label": "O",
                "properties": {}
            },
            {
                "species": [
                    {
                        "element": "O",
                        "occu": 1
                    }
                ],
                "abc": [
                    0.0,
                    0.23235018,
                    0.41420094
                ],
                "xyz": [
                    0.0,
                    1.0332104656811574,
                    1.7556445344542093
                ],
                "label": "O",
                "properties": {}
            },
            {
                "species": [
                    {
                        "element": "O",
                        "occu": 1
                    }
                ],
                "abc": [
                    0.63582657,
                    0.73011446,
                    0.35775124
                ],
                "xyz": [
                    6.889846704459307,
                    3.2466594225024776,
                    1.5163751419787124
                ],
                "label": "O",
                "properties": {}
            },
            {
                "species": [
                    {
                        "element": "O",
                        "occu": 1
                    }
                ],
                "abc": [
                    0.35669587,
                    0.35904789,
                    0.9496916
                ],
                "xyz": [
                    3.8651732726641885,
                    1.5966074897326825,
                    4.0253913160049155
                ],
                "label": "O",
                "properties": {}
            }
        ]
    },
    "spacegroup": {
        "source": "spglib",
        "symbol": "Pmn2_1",
        "number": 31,
        "point_group": "mm2",
        "crystal_system": "orthorhombic",
        "hall": "P 2ac -2"
    },
    "dielectric": {
        "epsilon_ionic": [
            [
                8.34224598,
                0.0,
                2.2e-07
            ],
            [
                0.0,
                17.48255086,
                2.1e-07
            ],
            [
                2.2e-07,
                2.1e-07,
                10.8908635
            ]
        ],
        "epsilon_ionic_avg": 12.238553446666662,
        "epsilon_ionic_eig": [
            8.34224597999998,
            10.890863500000012,
            17.482550859999996
        ],
        "epsilon_electronic": [
            [
                3.89393752,
                0.0,
                0.0
            ],
            [
                0.0,
                3.91940896,
                0.0
            ],
            [
                0.0,
                0.0,
                3.89766331
            ]
        ],
        "epsilon_electronic_avg": 3.90366993,
        "epsilon_electronic_eig": [
            3.89393752,
            3.91940896,
            3.89766331
        ]
    },
    "phonon": {
        "lowest_freq": -0.02695054214022543,
        "frequency": [
            -0.02695054214022543,
            -0.026644882054587045,
            -0.014874270284246906,
            1.447082284865802,
            1.9250485304000353,
            2.378003006258175,
            3.0905880756790234,
            3.1283944027632797,
            3.5523539131499096,
            4.7433644552739604,
            5.18785663311927,
            7.137204262552467,
            7.33117802483006,
            7.727985558957259,
            7.988653559973033,
            8.314376084782296,
            8.411785821770028,
            8.541193950019474,
            9.265588880595068,
            10.089408897455579,
            11.884652755801017,
            12.318079319800486,
            12.6568731610651,
            12.738549958416579,
            14.217414389612962,
            14.368776027229536,
            14.597053238004488,
            14.688553316609458,
            15.356368613037969,
            15.920617264864257,
            16.41176158788258,
            17.45244420739963,
            17.47755382094518,
            17.72714131192479,
            18.17731526536696,
            18.781735943223385,
            18.852801244991536,
            18.949628744739147,
            19.278564989575944,
            21.033230252757082,
            21.141723400470912,
            21.320451097268123,
            22.248574042480318,
            22.322293491722476,
            23.254381442439833,
            23.35651424751545,
            23.517233720517666,
            23.558513195242583,
            23.69468007351853,
            23.826950881773946,
            25.88971044846539,
            25.937159193168014,
            26.25973124115651,
            27.236059852473804,
            27.398607885931998,
            27.923026214787917,
            28.0889193139998,
            28.685150254636337,
            29.756572238581526,
            29.800130151274537,
            29.956598478678615,
            30.083987425433843,
            30.62613207253874,
            30.936649845711553,
            31.748153811683824,
            31.778296037453142,
            32.08746595806288,
            32.159255664614314,
            33.53780122988093,
            33.70925703932179,
            35.009077366743206,
            39.08145281392793
        ]
    },
    "born_effective_charge": {
        "avg_abs_trace": 2.2977670833333335,
        "tensors": [
            [
                [
                    3.00043,
                    0.22112,
                    0.00233
                ],
                [
                    0.21824,
                    2.23303,
                    -0.07905
                ],
                [
                    -0.07288,
                    -0.09146,
                    2.43254
                ]
            ],
            [
                [
                    3.00043,
                    0.22112,
                    -0.00233
                ],
                [
                    0.21824,
                    2.23303,
                    0.07905
                ],
                [
                    0.07288,
                    0.09146,
                    2.43254
                ]
            ],
            [
                [
                    2.47165,
                    -0.13676,
                    -0.00933
                ],
                [
                    0.10948,
                    2.71061,
                    0.14185
                ],
                [
                    -0.10272,
                    0.06433,
                    2.55733
                ]
            ],
            [
                [
                    2.47165,
                    -0.13676,
                    0.00933
                ],
                [
                    0.10948,
                    2.71061,
                    -0.14185
                ],
                [
                    0.10272,
                    -0.06433,
                    2.55733
                ]
            ],
            [
                [
                    2.47165,
                    0.13676,
                    -0.00933
                ],
                [
                    -0.10948,
                    2.71061,
                    -0.14185
                ],
                [
                    -0.10272,
                    -0.06433,
                    2.55733
                ]
            ],
            [
                [
                    2.47165,
                    0.13676,
                    0.00933
                ],
                [
                    -0.10948,
                    2.71061,
                    0.14185
                ],
                [
                    0.10272,
                    0.06433,
                    2.55733
                ]
            ],
            [
                [
                    3.00043,
                    -0.22112,
                    0.00233
                ],
                [
                    -0.21824,
                    2.23303,
                    0.07905
                ],
                [
                    -0.07288,
                    0.09146,
                    2.43254
                ]
            ],
            [
                [
                    3.00043,
                    -0.22112,
                    -0.00233
                ],
                [
                    -0.21824,
                    2.23303,
                    -0.07905
                ],
                [
                    0.07288,
                    -0.09146,
                    2.43254
                ]
            ],
            [
                [
                    3.25647,
                    0.0,
                    0.0
                ],
                [
                    0.0,
                    3.73847,
                    0.14733
                ],
                [
                    -0.0,
                    0.17777,
                    3.5537
                ]
            ],
            [
                [
                    3.25647,
                    -0.0,
                    0.0
                ],
                [
                    0.0,
                    3.73847,
                    -0.14733
                ],
                [
                    -0.0,
                    -0.17777,
                    3.5537
                ]
            ],
            [
                [
                    -2.16592,
                    -0.38124,
                    -0.31341
                ],
                [
                    -0.47477,
                    -2.32793,
                    0.25764
                ],
                [
                    -0.31792,
                    0.20317,
                    -1.73786
                ]
            ],
            [
                [
                    -2.0458,
                    0.08805,
                    0.34841
                ],
                [
                    0.09094,
                    -1.77254,
                    -0.40821
                ],
                [
                    0.24541,
                    -0.36538,
                    -2.13516
                ]
            ],
            [
                [
                    -2.0458,
                    0.08805,
                    -0.34841
                ],
                [
                    0.09094,
                    -1.77254,
                    0.40821
                ],
                [
                    -0.24541,
                    0.36538,
                    -2.13516
                ]
            ],
            [
                [
                    -2.0458,
                    -0.08805,
                    0.34841
                ],
                [
                    -0.09094,
                    -1.77254,
                    0.40821
                ],
                [
                    0.24541,
                    0.36538,
                    -2.13516
                ]
            ],
            [
                [
                    -1.6676,
                    -0.37766,
                    0.34783
                ],
                [
                    -0.3816,
                    -1.82625,
                    -0.16678
                ],
                [
                    0.29611,
                    -0.12014,
                    -2.07864
                ]
            ],
            [
                [
                    -1.6676,
                    -0.37766,
                    -0.34783
                ],
                [
                    -0.3816,
                    -1.82625,
                    0.16678
                ],
                [
                    -0.29611,
                    0.12014,
                    -2.07864
                ]
            ],
            [
                [
                    -1.6676,
                    0.37766,
                    0.34783
                ],
                [
                    0.3816,
                    -1.82625,
                    0.16678
                ],
                [
                    0.29611,
                    0.12014,
                    -2.07864
                ]
            ],
            [
                [
                    -1.6676,
                    0.37766,
                    -0.34783
                ],
                [
                    0.3816,
                    -1.82625,
                    -0.16678
                ],
                [
                    -0.29611,
                    -0.12014,
                    -2.07864
                ]
            ],
            [
                [
                    -2.16592,
                    0.38124,
                    -0.31341
                ],
                [
                    0.47477,
                    -2.32793,
                    -0.25764
                ],
                [
                    -0.31792,
                    -0.20317,
                    -1.73786
                ]
            ],
            [
                [
                    -2.16592,
                    0.38124,
                    0.31341
                ],
                [
                    0.47477,
                    -2.32793,
                    0.25764
                ],
                [
                    0.31792,
                    0.20317,
                    -1.73786
                ]
            ],
            [
                [
                    -2.44199,
                    0.0,
                    -0.0
                ],
                [
                    0.0,
                    -1.77229,
                    0.35264
                ],
                [
                    -0.0,
                    0.33959,
                    -1.63011
                ]
            ],
            [
                [
                    -2.44199,
                    -0.0,
                    -0.0
                ],
                [
                    0.0,
                    -1.7723,
                    -0.35264
                ],
                [
                    -0.0,
                    -0.33959,
                    -1.63011
                ]
            ],
            [
                [
                    -2.0458,
                    -0.08805,
                    -0.34841
                ],
                [
                    -0.09094,
                    -1.77254,
                    -0.40821
                ],
                [
                    -0.24541,
                    -0.36538,
                    -2.13516
                ]
            ],
            [
                [
                    -2.16592,
                    -0.38124,
                    0.31341
                ],
                [
                    -0.47477,
                    -2.32793,
                    -0.25764
                ],
                [
                    0.31792,
                    -0.20317,
                    -1.73786
                ]
            ]
        ]
    },
    "band_gap": 4.1585,
    "is_direct": false,
    "formula": "B4PbO7"
}