{
    "mp_id": "mp-972387",
    "nelements": 4,
    "nsites": 24,
    "elements": [
        "Ge",
        "Mg",
        "O",
        "Sr"
    ],
    "structure": {
        "@module": "pymatgen.core.structure",
        "@class": "Structure",
        "charge": null,
        "lattice": {
            "matrix": [
                [
                    8.19206566,
                    0.0,
                    0.0
                ],
                [
                    0.0,
                    8.19206566,
                    0.0
                ],
                [
                    0.0,
                    0.0,
                    5.33389722
                ]
            ],
            "a": 8.19206566,
            "b": 8.19206566,
            "c": 5.33389722,
            "alpha": 90.0,
            "beta": 90.0,
            "gamma": 90.0,
            "volume": 357.95752121491483
        },
        "sites": [
            {
                "species": [
                    {
                        "element": "Sr",
                        "occu": 1
                    }
                ],
                "abc": [
                    0.83487688,
                    0.33487688,
                    0.49091328
                ],
                "xyz": [
                    6.839366218975941,
                    2.743333388975941,
                    2.6184809794530817
                ],
                "label": "Sr",
                "properties": {}
            },
            {
                "species": [
                    {
                        "element": "Sr",
                        "occu": 1
                    }
                ],
                "abc": [
                    0.16512312,
                    0.66512312,
                    0.49091328
                ],
                "xyz": [
                    1.3526994410240594,
                    5.44873227102406,
                    2.6184809794530817
                ],
                "label": "Sr",
                "properties": {}
            },
            {
                "species": [
                    {
                        "element": "Sr",
                        "occu": 1
                    }
                ],
                "abc": [
                    0.33487688,
                    0.16512312,
                    0.50908672
                ],
                "xyz": [
                    2.743333388975941,
                    1.3526994410240594,
                    2.715416240546918
                ],
                "label": "Sr",
                "properties": {}
            },
            {
                "species": [
                    {
                        "element": "Sr",
                        "occu": 1
                    }
                ],
                "abc": [
                    0.66512312,
                    0.83487688,
                    0.50908672
                ],
                "xyz": [
                    5.44873227102406,
                    6.839366218975941,
                    2.715416240546918
                ],
                "label": "Sr",
                "properties": {}
            },
            {
                "species": [
                    {
                        "element": "Mg",
                        "occu": 1
                    }
                ],
                "abc": [
                    0.0,
                    0.0,
                    0.0
                ],
                "xyz": [
                    0.0,
                    0.0,
                    0.0
                ],
                "label": "Mg",
                "properties": {}
            },
            {
                "species": [
                    {
                        "element": "Mg",
                        "occu": 1
                    }
                ],
                "abc": [
                    0.5,
                    0.5,
                    0.0
                ],
                "xyz": [
                    4.09603283,
                    4.09603283,
                    0.0
                ],
                "label": "Mg",
                "properties": {}
            },
            {
                "species": [
                    {
                        "element": "Ge",
                        "occu": 1
                    }
                ],
                "abc": [
                    0.64363169,
                    0.14363169,
                    0.04973394
                ],
                "xyz": [
                    5.2726730653367655,
                    1.1766402353367655,
                    0.2652757243056468
                ],
                "label": "Ge",
                "properties": {}
            },
            {
                "species": [
                    {
                        "element": "Ge",
                        "occu": 1
                    }
                ],
                "abc": [
                    0.35636831,
                    0.85636831,
                    0.04973394
                ],
                "xyz": [
                    2.919392594663235,
                    7.015425424663236,
                    0.2652757243056468
                ],
                "label": "Ge",
                "properties": {}
            },
            {
                "species": [
                    {
                        "element": "Ge",
                        "occu": 1
                    }
                ],
                "abc": [
                    0.14363169,
                    0.35636831,
                    0.95026606
                ],
                "xyz": [
                    1.1766402353367655,
                    2.919392594663235,
                    5.068621495694353
                ],
                "label": "Ge",
                "properties": {}
            },
            {
                "species": [
                    {
                        "element": "Ge",
                        "occu": 1
                    }
                ],
                "abc": [
                    0.85636831,
                    0.64363169,
                    0.95026606
                ],
                "xyz": [
                    7.015425424663236,
                    5.2726730653367655,
                    5.068621495694353
                ],
                "label": "Ge",
                "properties": {}
            },
            {
                "species": [
                    {
                        "element": "O",
                        "occu": 1
                    }
                ],
                "abc": [
                    0.5,
                    0.0,
                    0.19003338
                ],
                "xyz": [
                    4.09603283,
                    0.0,
                    1.0136185172892036
                ],
                "label": "O",
                "properties": {}
            },
            {
                "species": [
                    {
                        "element": "O",
                        "occu": 1
                    }
                ],
                "abc": [
                    0.82454478,
                    0.08230741,
                    0.20939501
                ],
                "xyz": [
                    6.754724977370255,
                    0.6742677070245406,
                    1.116891461720872
                ],
                "label": "O",
                "properties": {}
            },
            {
                "species": [
                    {
                        "element": "O",
                        "occu": 1
                    }
                ],
                "abc": [
                    0.58230741,
                    0.32454478,
                    0.20939501
                ],
                "xyz": [
                    4.770300537024541,
                    2.658692147370255,
                    1.116891461720872
                ],
                "label": "O",
                "properties": {}
            },
            {
                "species": [
                    {
                        "element": "O",
                        "occu": 1
                    }
                ],
                "abc": [
                    0.41769259,
                    0.67545522,
                    0.20939501
                ],
                "xyz": [
                    3.4217651229754593,
                    5.533373512629746,
                    1.116891461720872
                ],
                "label": "O",
                "properties": {}
            },
            {
                "species": [
                    {
                        "element": "O",
                        "occu": 1
                    }
                ],
                "abc": [
                    0.17545522,
                    0.91769259,
                    0.20939501
                ],
                "xyz": [
                    1.4373406826297452,
                    7.51779795297546,
                    1.116891461720872
                ],
                "label": "O",
                "properties": {}
            },
            {
                "species": [
                    {
                        "element": "O",
                        "occu": 1
                    }
                ],
                "abc": [
                    0.13807431,
                    0.36192569,
                    0.27961976
                ],
                "xyz": [
                    1.1311138134791947,
                    2.9649190165208057,
                    1.491463060521067
                ],
                "label": "O",
                "properties": {}
            },
            {
                "species": [
                    {
                        "element": "O",
                        "occu": 1
                    }
                ],
                "abc": [
                    0.86192569,
                    0.63807431,
                    0.27961976
                ],
                "xyz": [
                    7.060951846520806,
                    5.2271466434791956,
                    1.491463060521067
                ],
                "label": "O",
                "properties": {}
            },
            {
                "species": [
                    {
                        "element": "O",
                        "occu": 1
                    }
                ],
                "abc": [
                    0.63807431,
                    0.13807431,
                    0.72038024
                ],
                "xyz": [
                    5.2271466434791956,
                    1.1311138134791947,
                    3.8424341594789326
                ],
                "label": "O",
                "properties": {}
            },
            {
                "species": [
                    {
                        "element": "O",
                        "occu": 1
                    }
                ],
                "abc": [
                    0.36192569,
                    0.86192569,
                    0.72038024
                ],
                "xyz": [
                    2.9649190165208057,
                    7.060951846520806,
                    3.8424341594789326
                ],
                "label": "O",
                "properties": {}
            },
            {
                "species": [
                    {
                        "element": "O",
                        "occu": 1
                    }
                ],
                "abc": [
                    0.08230741,
                    0.17545522,
                    0.79060499
                ],
                "xyz": [
                    0.6742677070245406,
                    1.4373406826297452,
                    4.217005758279128
                ],
                "label": "O",
                "properties": {}
            },
            {
                "species": [
                    {
                        "element": "O",
                        "occu": 1
                    }
                ],
                "abc": [
                    0.32454478,
                    0.41769259,
                    0.79060499
                ],
                "xyz": [
                    2.658692147370255,
                    3.4217651229754593,
                    4.217005758279128
                ],
                "label": "O",
                "properties": {}
            },
            {
                "species": [
                    {
                        "element": "O",
                        "occu": 1
                    }
                ],
                "abc": [
                    0.67545522,
                    0.58230741,
                    0.79060499
                ],
                "xyz": [
                    5.533373512629746,
                    4.770300537024541,
                    4.217005758279128
                ],
                "label": "O",
                "properties": {}
            },
            {
                "species": [
                    {
                        "element": "O",
                        "occu": 1
                    }
                ],
                "abc": [
                    0.91769259,
                    0.82454478,
                    0.79060499
                ],
                "xyz": [
                    7.51779795297546,
                    6.754724977370255,
                    4.217005758279128
                ],
                "label": "O",
                "properties": {}
            },
            {
                "species": [
                    {
                        "element": "O",
                        "occu": 1
                    }
                ],
                "abc": [
                    0.0,
                    0.5,
                    0.80996662
                ],
                "xyz": [
                    0.0,
                    4.09603283,
                    4.320278702710796
                ],
                "label": "O",
                "properties": {}
            }
        ]
    },
    "spacegroup": {
        "source": "spglib",
        "symbol": "P-42_1m",
        "number": 113,
        "point_group": "-42m",
        "crystal_system": "tetragonal",
        "hall": "P -4 2ab"
    },
    "dielectric": {
        "epsilon_ionic": [
            [
                7.59848003,
                0.0,
                -1e-08
            ],
            [
                0.0,
                7.59848149,
                -1e-08
            ],
            [
                -1e-08,
                -1e-08,
                4.42599702
            ]
        ],
        "epsilon_ionic_avg": 6.540986180000001,
        "epsilon_ionic_eig": [
            4.4259970200000005,
            7.59848003,
            7.59848149
        ],
        "epsilon_electronic": [
            [
                3.10515195,
                0.0,
                0.0
            ],
            [
                -0.0,
                3.10515195,
                -0.0
            ],
            [
                0.0,
                0.0,
                3.21809865
            ]
        ],
        "epsilon_electronic_avg": 3.1428008500000004,
        "epsilon_electronic_eig": [
            3.10515195,
            3.10515195,
            3.21809865
        ]
    },
    "phonon": {
        "lowest_freq": -0.0538907142604659,
        "frequency": [
            -0.0538907142604659,
            -0.0538907142604659,
            -0.015084856073035651,
            1.72361428308554,
            1.771006988827652,
            1.771006988827652,
            1.8006732113113015,
            2.9978231224172927,
            2.9978231224172927,
            3.1161430846066134,
            3.3521068868871593,
            3.3521068868871593,
            3.5531467938070036,
            3.5531467938070036,
            3.782925950799609,
            3.8800213339683953,
            4.3055562432053724,
            4.395367958969679,
            4.402335589250343,
            4.402335589250343,
            4.5140799104889595,
            5.0812225771913,
            5.477022415011566,
            5.541292863920775,
            5.541292863920775,
            6.148031122722936,
            6.168551587097151,
            6.168551587097151,
            6.192705848369917,
            6.471449313119649,
            6.618325766847738,
            6.747175431910805,
            6.9418131874695606,
            6.9418131874695606,
            7.391561066446124,
            8.311756087986204,
            8.311756087986204,
            8.424606005826007,
            8.704228328838306,
            8.852127476037913,
            9.042386462190354,
            9.042386462190354,
            9.959392112952724,
            9.959392112952724,
            10.331072146477705,
            11.911815309781623,
            11.911815309781623,
            12.063883914996605,
            13.153614253432284,
            13.816270409456347,
            14.917375745692812,
            15.068047388631964,
            15.264713854111378,
            15.288242725678677,
            15.288242725678677,
            15.898775141392635,
            15.898775141392635,
            16.08602995525131,
            21.39416750397672,
            21.39416750397672,
            21.677947629722443,
            21.677947629722443,
            21.948632664728088,
            22.48597862390263,
            22.514796813206342,
            22.514796813206342,
            22.51980631384916,
            23.379071362252308,
            23.42666063140606,
            23.514234131214902,
            25.249218048966608,
            25.249218048966608
        ]
    },
    "born_effective_charge": {
        "avg_abs_trace": 2.0998316666666668,
        "tensors": [
            [
                [
                    2.39754,
                    0.37675,
                    0.18699
                ],
                [
                    0.37673,
                    2.39755,
                    0.18699
                ],
                [
                    -0.05145,
                    -0.05145,
                    2.60834
                ]
            ],
            [
                [
                    2.39754,
                    0.37682,
                    -0.18711
                ],
                [
                    0.37684,
                    2.39753,
                    -0.18712
                ],
                [
                    0.05145,
                    0.05145,
                    2.60834
                ]
            ],
            [
                [
                    2.39754,
                    -0.37675,
                    -0.18699
                ],
                [
                    -0.37684,
                    2.39753,
                    0.18712
                ],
                [
                    0.05141,
                    -0.05141,
                    2.60856
                ]
            ],
            [
                [
                    2.39754,
                    -0.37682,
                    0.18711
                ],
                [
                    -0.37673,
                    2.39755,
                    -0.18699
                ],
                [
                    -0.05141,
                    0.05141,
                    2.60856
                ]
            ],
            [
                [
                    2.1468,
                    -0.06912,
                    -1e-05
                ],
                [
                    0.06912,
                    2.1468,
                    1e-05
                ],
                [
                    -0.0,
                    -0.0,
                    1.38903
                ]
            ],
            [
                [
                    2.1468,
                    0.06912,
                    1e-05
                ],
                [
                    -0.06912,
                    2.1468,
                    -1e-05
                ],
                [
                    -0.0,
                    -0.0,
                    1.38903
                ]
            ],
            [
                [
                    2.83985,
                    0.1149,
                    -0.07496
                ],
                [
                    0.1149,
                    2.83985,
                    -0.07495
                ],
                [
                    0.05483,
                    0.05483,
                    2.97393
                ]
            ],
            [
                [
                    2.83976,
                    0.11496,
                    0.07487
                ],
                [
                    0.11496,
                    2.83976,
                    0.07487
                ],
                [
                    -0.05483,
                    -0.05483,
                    2.97393
                ]
            ],
            [
                [
                    2.83985,
                    -0.1149,
                    0.07496
                ],
                [
                    -0.11496,
                    2.83976,
                    -0.07487
                ],
                [
                    -0.05485,
                    0.05485,
                    2.97414
                ]
            ],
            [
                [
                    2.83976,
                    -0.11496,
                    -0.07487
                ],
                [
                    -0.1149,
                    2.83985,
                    0.07495
                ],
                [
                    0.05485,
                    -0.05485,
                    2.97414
                ]
            ],
            [
                [
                    -2.12123,
                    -0.78562,
                    -6e-05
                ],
                [
                    -0.78562,
                    -2.12123,
                    -5e-05
                ],
                [
                    -0.0,
                    -0.0,
                    -1.67656
                ]
            ],
            [
                [
                    -2.04051,
                    0.18024,
                    -0.17664
                ],
                [
                    0.06439,
                    -1.67825,
                    -0.071
                ],
                [
                    -0.08336,
                    -0.06589,
                    -1.60179
                ]
            ],
            [
                [
                    -1.67826,
                    0.0644,
                    -0.071
                ],
                [
                    0.18025,
                    -2.0405,
                    -0.17664
                ],
                [
                    -0.06589,
                    -0.08336,
                    -1.60179
                ]
            ],
            [
                [
                    -1.6782,
                    0.06441,
                    0.07093
                ],
                [
                    0.18026,
                    -2.04049,
                    0.17657
                ],
                [
                    0.06589,
                    0.08336,
                    -1.60179
                ]
            ],
            [
                [
                    -2.04048,
                    0.18027,
                    0.17657
                ],
                [
                    0.06442,
                    -1.67821,
                    0.07093
                ],
                [
                    0.08336,
                    0.06589,
                    -1.60179
                ]
            ],
            [
                [
                    -1.53149,
                    0.10058,
                    -0.01882
                ],
                [
                    0.10061,
                    -1.53132,
                    0.01894
                ],
                [
                    0.01868,
                    -0.01868,
                    -2.23509
                ]
            ],
            [
                [
                    -1.53131,
                    0.10061,
                    0.01894
                ],
                [
                    0.10058,
                    -1.53148,
                    -0.01882
                ],
                [
                    -0.01868,
                    0.01868,
                    -2.23509
                ]
            ],
            [
                [
                    -1.53149,
                    -0.10058,
                    0.01882
                ],
                [
                    -0.10058,
                    -1.53148,
                    0.01882
                ],
                [
                    -0.01863,
                    -0.01863,
                    -2.23463
                ]
            ],
            [
                [
                    -1.53131,
                    -0.10061,
                    -0.01894
                ],
                [
                    -0.10061,
                    -1.53132,
                    -0.01894
                ],
                [
                    0.01863,
                    0.01863,
                    -2.23463
                ]
            ],
            [
                [
                    -1.67826,
                    -0.0644,
                    0.071
                ],
                [
                    -0.18026,
                    -2.04049,
                    -0.17657
                ],
                [
                    0.06577,
                    -0.08345,
                    -1.6021
                ]
            ],
            [
                [
                    -2.04051,
                    -0.18024,
                    0.17664
                ],
                [
                    -0.06442,
                    -1.67821,
                    -0.07093
                ],
                [
                    0.08345,
                    -0.06577,
                    -1.6021
                ]
            ],
            [
                [
                    -2.04048,
                    -0.18027,
                    -0.17657
                ],
                [
                    -0.06439,
                    -1.67825,
                    0.071
                ],
                [
                    -0.08345,
                    0.06577,
                    -1.6021
                ]
            ],
            [
                [
                    -1.6782,
                    -0.06441,
                    -0.07093
                ],
                [
                    -0.18025,
                    -2.0405,
                    0.17664
                ],
                [
                    -0.06577,
                    0.08345,
                    -1.6021
                ]
            ],
            [
                [
                    -2.12123,
                    0.78562,
                    6e-05
                ],
                [
                    0.78562,
                    -2.12123,
                    5e-05
                ],
                [
                    -0.0,
                    -0.0,
                    -1.67644
                ]
            ]
        ]
    },
    "band_gap": 3.4781000000000004,
    "is_direct": false,
    "formula": "Sr2MgGe2O7"
}