{
    "mp_id": "mp-9784",
    "nelements": 4,
    "nsites": 24,
    "elements": [
        "As",
        "B",
        "Ba",
        "O"
    ],
    "structure": {
        "@module": "pymatgen.core.structure",
        "@class": "Structure",
        "charge": null,
        "lattice": {
            "matrix": [
                [
                    7.33299227,
                    0.0,
                    0.0
                ],
                [
                    -3.66649613,
                    6.35055804,
                    0.0
                ],
                [
                    0.0,
                    0.0,
                    7.12727911
                ]
            ],
            "a": 7.33299227,
            "b": 7.332992655847518,
            "c": 7.12727911,
            "alpha": 90.0,
            "beta": 90.0,
            "gamma": 119.99999821429927,
            "volume": 331.9073601957649
        },
        "sites": [
            {
                "species": [
                    {
                        "element": "Ba",
                        "occu": 1
                    }
                ],
                "abc": [
                    0.38925246,
                    0.38925246,
                    0.5
                ],
                "xyz": [
                    1.4271926420755048,
                    2.4719703394427786,
                    3.563639555
                ],
                "label": "Ba",
                "properties": {}
            },
            {
                "species": [
                    {
                        "element": "Ba",
                        "occu": 1
                    }
                ],
                "abc": [
                    0.0,
                    0.61074754,
                    0.166667
                ],
                "xyz": [
                    -2.23930349181702,
                    3.8785877005572216,
                    1.18788222742637
                ],
                "label": "Ba",
                "properties": {}
            },
            {
                "species": [
                    {
                        "element": "Ba",
                        "occu": 1
                    }
                ],
                "abc": [
                    0.61074754,
                    0.0,
                    0.833333
                ],
                "xyz": [
                    4.4786069897415155,
                    0.0,
                    5.93939688257363
                ],
                "label": "Ba",
                "properties": {}
            },
            {
                "species": [
                    {
                        "element": "B",
                        "occu": 1
                    }
                ],
                "abc": [
                    0.90258512,
                    0.90258512,
                    0.5
                ],
                "xyz": [
                    3.3093248585014368,
                    5.731919190600365,
                    3.563639555
                ],
                "label": "B",
                "properties": {}
            },
            {
                "species": [
                    {
                        "element": "B",
                        "occu": 1
                    }
                ],
                "abc": [
                    0.0,
                    0.09741488,
                    0.166667
                ],
                "xyz": [
                    -0.3571712805244144,
                    0.6186388493996352,
                    1.18788222742637
                ],
                "label": "B",
                "properties": {}
            },
            {
                "species": [
                    {
                        "element": "B",
                        "occu": 1
                    }
                ],
                "abc": [
                    0.09741488,
                    0.0,
                    0.833333
                ],
                "xyz": [
                    0.7143425620229775,
                    0.0,
                    5.93939688257363
                ],
                "label": "B",
                "properties": {}
            },
            {
                "species": [
                    {
                        "element": "As",
                        "occu": 1
                    }
                ],
                "abc": [
                    0.60340636,
                    0.0,
                    0.333333
                ],
                "xyz": [
                    4.424774173548838,
                    0.0,
                    2.37575732757363
                ],
                "label": "As",
                "properties": {}
            },
            {
                "species": [
                    {
                        "element": "As",
                        "occu": 1
                    }
                ],
                "abc": [
                    0.39659364,
                    0.39659364,
                    0.0
                ],
                "xyz": [
                    1.4541090502085494,
                    2.5185909291148656,
                    0.0
                ],
                "label": "As",
                "properties": {}
            },
            {
                "species": [
                    {
                        "element": "As",
                        "occu": 1
                    }
                ],
                "abc": [
                    0.0,
                    0.60340636,
                    0.666667
                ],
                "xyz": [
                    -2.212387083757387,
                    3.8319671108851345,
                    4.75152178242637
                ],
                "label": "As",
                "properties": {}
            },
            {
                "species": [
                    {
                        "element": "O",
                        "occu": 1
                    }
                ],
                "abc": [
                    0.9725519,
                    0.9725519,
                    0.0
                ],
                "xyz": [
                    3.565857787299666,
                    6.176247287862276,
                    0.0
                ],
                "label": "O",
                "properties": {}
            },
            {
                "species": [
                    {
                        "element": "O",
                        "occu": 1
                    }
                ],
                "abc": [
                    0.0274481,
                    0.0,
                    0.333333
                ],
                "xyz": [
                    0.201276705126187,
                    0.0,
                    2.37575732757363
                ],
                "label": "O",
                "properties": {}
            },
            {
                "species": [
                    {
                        "element": "O",
                        "occu": 1
                    }
                ],
                "abc": [
                    0.0,
                    0.0274481,
                    0.666667
                ],
                "xyz": [
                    -0.100638352425853,
                    0.174310752137724,
                    4.75152178242637
                ],
                "label": "O",
                "properties": {}
            },
            {
                "species": [
                    {
                        "element": "O",
                        "occu": 1
                    }
                ],
                "abc": [
                    0.56435647,
                    0.1508108,
                    0.48583738
                ],
                "xyz": [
                    3.585474417472283,
                    0.957732738458832,
                    3.462698609331132
                ],
                "label": "O",
                "properties": {}
            },
            {
                "species": [
                    {
                        "element": "O",
                        "occu": 1
                    }
                ],
                "abc": [
                    0.58645432,
                    0.43564353,
                    0.15250338
                ],
                "xyz": [
                    2.703179678463567,
                    2.766579522015481,
                    1.0869341544783917
                ],
                "label": "O",
                "properties": {}
            },
            {
                "species": [
                    {
                        "element": "O",
                        "occu": 1
                    }
                ],
                "abc": [
                    0.8491892,
                    0.41354568,
                    0.81917038
                ],
                "xyz": [
                    4.710834204069265,
                    2.6262458430312674,
                    5.8384559369047615
                ],
                "label": "O",
                "properties": {}
            },
            {
                "species": [
                    {
                        "element": "O",
                        "occu": 1
                    }
                ],
                "abc": [
                    0.14598703,
                    0.82185422,
                    0.81242404
                ],
                "xyz": [
                    -1.9428035545439106,
                    5.219232924528929,
                    5.790372888753804
                ],
                "label": "O",
                "properties": {}
            },
            {
                "species": [
                    {
                        "element": "O",
                        "occu": 1
                    }
                ],
                "abc": [
                    0.17814578,
                    0.32413281,
                    0.14575704
                ],
                "xyz": [
                    0.11790993420209528,
                    2.0584242225732923,
                    1.0388511063274344
                ],
                "label": "O",
                "properties": {}
            },
            {
                "species": [
                    {
                        "element": "O",
                        "occu": 1
                    }
                ],
                "abc": [
                    0.67586719,
                    0.85401297,
                    0.47909004
                ],
                "xyz": [
                    1.824893630341815,
                    5.423458932897779,
                    3.4146084339010643
                ],
                "label": "O",
                "properties": {}
            },
            {
                "species": [
                    {
                        "element": "O",
                        "occu": 1
                    }
                ],
                "abc": [
                    0.1508108,
                    0.56435647,
                    0.51416262
                ],
                "xyz": [
                    -0.9633163825629452,
                    3.583978517984519,
                    3.664580500668868
                ],
                "label": "O",
                "properties": {}
            },
            {
                "species": [
                    {
                        "element": "O",
                        "occu": 1
                    }
                ],
                "abc": [
                    0.43564353,
                    0.58645432,
                    0.84749662
                ],
                "xyz": [
                    1.0443381432637313,
                    3.7243121969687327,
                    6.040344955521609
                ],
                "label": "O",
                "properties": {}
            },
            {
                "species": [
                    {
                        "element": "O",
                        "occu": 1
                    }
                ],
                "abc": [
                    0.41354568,
                    0.8491892,
                    0.18082962
                ],
                "xyz": [
                    -0.08102164070590234,
                    5.392825301541168,
                    1.2888231730952382
                ],
                "label": "O",
                "properties": {}
            },
            {
                "species": [
                    {
                        "element": "O",
                        "occu": 1
                    }
                ],
                "abc": [
                    0.85401297,
                    0.67586719,
                    0.52090996
                ],
                "xyz": [
                    3.7844060709607676,
                    4.292133817426707,
                    3.7126706760989356
                ],
                "label": "O",
                "properties": {}
            },
            {
                "species": [
                    {
                        "element": "O",
                        "occu": 1
                    }
                ],
                "abc": [
                    0.32413281,
                    0.17814578,
                    0.85424296
                ],
                "xyz": [
                    1.7236925772375473,
                    1.1313251154710713,
                    6.088428003672566
                ],
                "label": "O",
                "properties": {}
            },
            {
                "species": [
                    {
                        "element": "O",
                        "occu": 1
                    }
                ],
                "abc": [
                    0.82185422,
                    0.14598703,
                    0.18757596
                ],
                "xyz": [
                    5.491389761801685,
                    0.9270991071022212,
                    1.3369062212461957
                ],
                "label": "O",
                "properties": {}
            }
        ]
    },
    "spacegroup": {
        "source": "spglib",
        "symbol": "P3_121",
        "number": 152,
        "point_group": "32",
        "crystal_system": "trigonal",
        "hall": "P 31 2\""
    },
    "dielectric": {
        "epsilon_ionic": [
            [
                5.97624871,
                -0.00047996,
                -1e-08
            ],
            [
                -0.00047996,
                5.97592512,
                -3.612e-05
            ],
            [
                -1e-08,
                -3.612e-05,
                5.66471883
            ]
        ],
        "epsilon_ionic_avg": 5.8722975533333335,
        "epsilon_ionic_eig": [
            5.976593413434844,
            5.975580420757421,
            5.664718825807737
        ],
        "epsilon_electronic": [
            [
                3.12113161,
                0.0,
                0.0
            ],
            [
                0.0,
                3.12113224,
                -0.0
            ],
            [
                0.0,
                0.0,
                3.2451616
            ]
        ],
        "epsilon_electronic_avg": 3.16247515,
        "epsilon_electronic_eig": [
            3.12113161,
            3.12113224,
            3.2451616
        ]
    },
    "phonon": {
        "lowest_freq": -0.12546598419346652,
        "frequency": [
            -0.12546598419346652,
            -0.10069724226882654,
            -0.10069723207509551,
            1.6197022244846384,
            2.128051530062527,
            2.2894316188502906,
            2.289431629525435,
            2.390922759987187,
            2.3909228110971874,
            2.428013428261611,
            2.7216139061377436,
            2.7216139061377436,
            2.8405626749179946,
            3.3534252744843127,
            3.353425434821947,
            4.273889551529228,
            4.409845236582084,
            4.871960186054865,
            4.871960281367682,
            5.281767568050495,
            5.5812399119785985,
            5.581240065242115,
            5.979568907283252,
            5.979568927719518,
            7.210622366609204,
            7.21062241745089,
            7.231586000722875,
            8.230568539704727,
            8.606720208004461,
            8.692558806783188,
            8.692558961421279,
            8.934266321015706,
            9.276852147712214,
            9.276852174057371,
            10.209010849241883,
            10.20901107666854,
            10.482344579128904,
            10.627094168092027,
            11.424937698582589,
            11.424937698582589,
            11.99114649429459,
            11.991146606394022,
            13.449704428523626,
            13.449704582980633,
            14.444896464374942,
            15.498004799194753,
            17.48046176033973,
            17.480461900153042,
            17.94124877926796,
            20.496930698928356,
            20.496930997021927,
            21.24922516941607,
            21.99270749918276,
            21.992708554896883,
            23.36710544197754,
            24.011203046291584,
            24.011203504328016,
            24.930364056316485,
            24.9303647425483,
            25.02494009353588,
            25.93296340834786,
            26.754104578010867,
            26.762965526827248,
            26.762965663807663,
            26.89500161948132,
            26.895001892097177,
            28.42034731996692,
            28.459332325266523,
            28.45933382811351,
            29.300073240810928,
            33.117458031989976,
            33.117458105787954
        ]
    },
    "born_effective_charge": {
        "avg_abs_trace": 2.183031111111111,
        "tensors": [
            [
                [
                    2.8416,
                    -0.1865,
                    -0.07566
                ],
                [
                    -0.18688,
                    2.62636,
                    0.04372
                ],
                [
                    -0.32369,
                    0.18696,
                    2.84562
                ]
            ],
            [
                [
                    2.8416,
                    0.1865,
                    0.07566
                ],
                [
                    0.18608,
                    2.62622,
                    0.0436
                ],
                [
                    0.32376,
                    0.18684,
                    2.84562
                ]
            ],
            [
                [
                    2.51861,
                    -0.0,
                    0.0
                ],
                [
                    -0.00011,
                    2.94908,
                    -0.0874
                ],
                [
                    -7e-05,
                    -0.3738,
                    2.84562
                ]
            ],
            [
                [
                    2.58994,
                    -0.18311,
                    0.21983
                ],
                [
                    -0.18321,
                    2.3785,
                    -0.12727
                ],
                [
                    0.39284,
                    -0.22688,
                    2.7515
                ]
            ],
            [
                [
                    2.58994,
                    0.18311,
                    -0.21983
                ],
                [
                    0.18293,
                    2.37829,
                    -0.12661
                ],
                [
                    -0.3929,
                    -0.22676,
                    2.7515
                ]
            ],
            [
                [
                    2.27283,
                    -0.0,
                    0.0
                ],
                [
                    -0.00034,
                    2.69549,
                    0.25359
                ],
                [
                    7e-05,
                    0.45365,
                    2.7515
                ]
            ],
            [
                [
                    3.59319,
                    -0.0,
                    0.0
                ],
                [
                    -0.00134,
                    2.94174,
                    0.11514
                ],
                [
                    -0.00011,
                    -0.02424,
                    3.62835
                ]
            ],
            [
                [
                    3.10469,
                    0.28204,
                    0.09984
                ],
                [
                    0.28133,
                    3.42979,
                    -0.05779
                ],
                [
                    -0.02093,
                    0.01221,
                    3.62835
                ]
            ],
            [
                [
                    3.10469,
                    -0.28204,
                    -0.09984
                ],
                [
                    -0.28252,
                    3.43015,
                    -0.05715
                ],
                [
                    0.02104,
                    0.01202,
                    3.62835
                ]
            ],
            [
                [
                    -1.53657,
                    0.1052,
                    0.53604
                ],
                [
                    0.10488,
                    -1.41504,
                    -0.30949
                ],
                [
                    0.57575,
                    -0.33219,
                    -2.53873
                ]
            ],
            [
                [
                    -1.35409,
                    -0.0,
                    0.0
                ],
                [
                    -0.00041,
                    -1.59735,
                    0.61905
                ],
                [
                    -0.00019,
                    0.66471,
                    -2.53873
                ]
            ],
            [
                [
                    -1.53657,
                    -0.1052,
                    -0.53604
                ],
                [
                    -0.1053,
                    -1.41472,
                    -0.30921
                ],
                [
                    -0.57556,
                    -0.33252,
                    -2.53873
                ]
            ],
            [
                [
                    -1.7013,
                    0.59543,
                    0.28655
                ],
                [
                    0.51149,
                    -1.52609,
                    -0.33479
                ],
                [
                    0.22126,
                    -0.23715,
                    -1.75584
                ]
            ],
            [
                [
                    -2.04771,
                    -0.3102,
                    -0.43175
                ],
                [
                    -0.39356,
                    -1.17833,
                    -0.08093
                ],
                [
                    -0.31601,
                    -0.07304,
                    -1.75584
                ]
            ],
            [
                [
                    -1.0905,
                    -0.15751,
                    0.14479
                ],
                [
                    -0.24292,
                    -2.13659,
                    0.415
                ],
                [
                    0.09475,
                    0.3102,
                    -1.75584
                ]
            ],
            [
                [
                    -1.42846,
                    0.28141,
                    -0.04489
                ],
                [
                    0.48859,
                    -2.35531,
                    -0.48764
                ],
                [
                    0.08065,
                    -0.6048,
                    -1.5874
                ]
            ],
            [
                [
                    -1.78999,
                    -0.69745,
                    0.44462
                ],
                [
                    -0.49024,
                    -1.99344,
                    0.20485
                ],
                [
                    0.48345,
                    0.37224,
                    -1.5874
                ]
            ],
            [
                [
                    -2.45697,
                    0.10515,
                    -0.3997
                ],
                [
                    0.31273,
                    -1.3263,
                    0.28242
                ],
                [
                    -0.5641,
                    0.23256,
                    -1.5874
                ]
            ],
            [
                [
                    -2.04771,
                    0.3102,
                    0.43175
                ],
                [
                    0.3965,
                    -1.17882,
                    -0.08235
                ],
                [
                    0.31598,
                    -0.07304,
                    -1.756
                ]
            ],
            [
                [
                    -1.0905,
                    0.15751,
                    -0.14479
                ],
                [
                    0.24221,
                    -2.13462,
                    0.41409
                ],
                [
                    -0.09473,
                    0.31017,
                    -1.756
                ]
            ],
            [
                [
                    -1.7013,
                    -0.59543,
                    -0.28655
                ],
                [
                    -0.50878,
                    -1.52343,
                    -0.33112
                ],
                [
                    -0.22124,
                    -0.23712,
                    -1.756
                ]
            ],
            [
                [
                    -1.78999,
                    0.69745,
                    -0.44462
                ],
                [
                    0.48998,
                    -1.99362,
                    0.20477
                ],
                [
                    -0.48345,
                    0.37232,
                    -1.5875
                ]
            ],
            [
                [
                    -1.42846,
                    -0.28141,
                    0.04489
                ],
                [
                    -0.48866,
                    -2.35503,
                    -0.48735
                ],
                [
                    -0.08071,
                    -0.60484,
                    -1.5875
                ]
            ],
            [
                [
                    -2.45697,
                    -0.10515,
                    0.3997
                ],
                [
                    -0.31245,
                    -1.32693,
                    0.28289
                ],
                [
                    0.56416,
                    0.23252,
                    -1.5875
                ]
            ]
        ]
    },
    "band_gap": 3.5225999999999997,
    "is_direct": true,
    "formula": "BaBAsO5"
}