{
    "mp_id": "mvc-15460",
    "nelements": 4,
    "nsites": 10,
    "elements": [
        "La",
        "Mg",
        "Ni",
        "O"
    ],
    "structure": {
        "@module": "pymatgen.core.structure",
        "@class": "Structure",
        "charge": null,
        "lattice": {
            "matrix": [
                [
                    2.723184,
                    1.572231,
                    4.34881351
                ],
                [
                    -2.723184,
                    1.572231,
                    4.34881351
                ],
                [
                    0.0,
                    -3.144463,
                    4.34881351
                ]
            ],
            "a": 5.366546409002304,
            "b": 5.366546409002304,
            "c": 5.366546981358453,
            "alpha": 60.986521222248655,
            "beta": 60.986521222248655,
            "gamma": 60.986514588019624,
            "volume": 111.71602344801494
        },
        "sites": [
            {
                "species": [
                    {
                        "element": "La",
                        "occu": 1
                    }
                ],
                "abc": [
                    0.75098903,
                    0.75098903,
                    0.75098903
                ],
                "xyz": [
                    0.0,
                    -7.509890300738675e-07,
                    9.797733718577385
                ],
                "label": "La",
                "properties": {}
            },
            {
                "species": [
                    {
                        "element": "La",
                        "occu": 1
                    }
                ],
                "abc": [
                    0.24901097,
                    0.24901097,
                    0.24901097
                ],
                "xyz": [
                    0.0,
                    -2.4901096995488814e-07,
                    3.2487068114226147
                ],
                "label": "La",
                "properties": {}
            },
            {
                "species": [
                    {
                        "element": "Mg",
                        "occu": 1
                    }
                ],
                "abc": [
                    0.5,
                    0.5,
                    0.5
                ],
                "xyz": [
                    0.0,
                    -5.00000000069889e-07,
                    6.523220265000001
                ],
                "label": "Mg",
                "properties": {}
            },
            {
                "species": [
                    {
                        "element": "Ni",
                        "occu": 1
                    }
                ],
                "abc": [
                    0.0,
                    0.0,
                    0.0
                ],
                "xyz": [
                    0.0,
                    0.0,
                    0.0
                ],
                "label": "Ni",
                "properties": {}
            },
            {
                "species": [
                    {
                        "element": "O",
                        "occu": 1
                    }
                ],
                "abc": [
                    0.29216235,
                    0.76358919,
                    0.1869561
                ],
                "xyz": [
                    -1.2837820278585599,
                    1.07200876041144,
                    5.4043037738122175
                ],
                "label": "O",
                "properties": {}
            },
            {
                "species": [
                    {
                        "element": "O",
                        "occu": 1
                    }
                ],
                "abc": [
                    0.76358919,
                    0.1869561,
                    0.29216235
                ],
                "xyz": [
                    1.5702780045585598,
                    0.57578307227394,
                    5.404303773812217
                ],
                "label": "O",
                "properties": {}
            },
            {
                "species": [
                    {
                        "element": "O",
                        "occu": 1
                    }
                ],
                "abc": [
                    0.1869561,
                    0.29216235,
                    0.76358919
                ],
                "xyz": [
                    -0.28649597670000004,
                    -1.6477930753930201,
                    5.404303773812217
                ],
                "label": "O",
                "properties": {}
            },
            {
                "species": [
                    {
                        "element": "O",
                        "occu": 1
                    }
                ],
                "abc": [
                    0.70783765,
                    0.23641081,
                    0.8130439
                ],
                "xyz": [
                    1.2837820278585599,
                    -1.0720097604114402,
                    7.642136756187785
                ],
                "label": "O",
                "properties": {}
            },
            {
                "species": [
                    {
                        "element": "O",
                        "occu": 1
                    }
                ],
                "abc": [
                    0.8130439,
                    0.70783765,
                    0.23641081
                ],
                "xyz": [
                    0.28649597669999993,
                    1.6477920753930198,
                    7.642136756187784
                ],
                "label": "O",
                "properties": {}
            },
            {
                "species": [
                    {
                        "element": "O",
                        "occu": 1
                    }
                ],
                "abc": [
                    0.23641081,
                    0.8130439,
                    0.70783765
                ],
                "xyz": [
                    -1.5702780045585598,
                    -0.5757840722739402,
                    7.642136756187784
                ],
                "label": "O",
                "properties": {}
            }
        ]
    },
    "spacegroup": {
        "source": "spglib",
        "symbol": "R-3",
        "number": 148,
        "point_group": "-3",
        "crystal_system": "trigonal",
        "hall": "-R 3"
    },
    "dielectric": {
        "epsilon_ionic": [
            [
                14.97110014,
                2.353e-05,
                6.37e-06
            ],
            [
                2.353e-05,
                14.97030059,
                1.168e-05
            ],
            [
                6.37e-06,
                1.168e-05,
                20.92821343
            ]
        ],
        "epsilon_ionic_avg": 16.956538053333336,
        "epsilon_ionic_eig": [
            14.971100831859397,
            14.970299898110902,
            20.928213430029707
        ],
        "epsilon_electronic": [
            [
                6.92792764,
                2.26e-06,
                -0.0
            ],
            [
                -2.26e-06,
                6.92792751,
                0.0
            ],
            [
                0.0,
                0.0,
                6.81891871
            ]
        ],
        "epsilon_electronic_avg": 6.891591286666667,
        "epsilon_electronic_eig": [
            6.927927575,
            6.927927575,
            6.81891871
        ]
    },
    "phonon": {
        "lowest_freq": -0.02467662629971692,
        "frequency": [
            -0.02467662629971692,
            -0.024676626052114056,
            -0.015736088315494924,
            2.0537804658497305,
            2.053780477749743,
            3.836031132976523,
            4.259756337037988,
            4.86828284875509,
            4.868282891427244,
            5.210409946818714,
            5.210409993724838,
            7.049493999761944,
            8.277842044955523,
            8.277842044955523,
            10.265925829703859,
            10.982159652244949,
            11.090169347191129,
            11.090169435341318,
            11.40013787564444,
            12.41802797791854,
            12.418028007440151,
            12.701773730545192,
            13.365425536577115,
            13.3654256280071,
            17.115798969215998,
            17.115799040612057,
            18.501919856679283,
            18.893833372717566,
            18.89383343739479,
            20.754340743339373
        ]
    },
    "born_effective_charge": {
        "avg_abs_trace": 2.6453343333333335,
        "tensors": [
            [
                [
                    4.43758,
                    0.23138,
                    -1e-05
                ],
                [
                    -0.23136,
                    4.43747,
                    -0.0
                ],
                [
                    -0.0,
                    0.0,
                    4.04147
                ]
            ],
            [
                [
                    4.43769,
                    0.23133,
                    1e-05
                ],
                [
                    -0.23131,
                    4.43755,
                    -0.0
                ],
                [
                    -0.0,
                    0.0,
                    4.04155
                ]
            ],
            [
                [
                    2.82336,
                    -0.52302,
                    -0.0
                ],
                [
                    0.52301,
                    2.82331,
                    1e-05
                ],
                [
                    -0.0,
                    0.0,
                    2.75842
                ]
            ],
            [
                [
                    1.8655,
                    -0.03361,
                    -0.0
                ],
                [
                    0.03361,
                    1.86546,
                    1e-05
                ],
                [
                    -0.0,
                    0.0,
                    1.71066
                ]
            ],
            [
                [
                    -2.50974,
                    0.02981,
                    -0.36339
                ],
                [
                    -0.00143,
                    -2.01155,
                    0.13281
                ],
                [
                    -0.44461,
                    0.1041,
                    -2.09202
                ]
            ],
            [
                [
                    -2.14847,
                    -0.20718,
                    0.29671
                ],
                [
                    -0.23843,
                    -2.37285,
                    0.24827
                ],
                [
                    0.31246,
                    0.333,
                    -2.09202
                ]
            ],
            [
                [
                    -2.12381,
                    0.22428,
                    0.06667
                ],
                [
                    0.19294,
                    -2.39749,
                    -0.38111
                ],
                [
                    0.13215,
                    -0.4371,
                    -2.09202
                ]
            ],
            [
                [
                    -2.50972,
                    0.02992,
                    -0.36341
                ],
                [
                    -0.00145,
                    -2.01165,
                    0.13287
                ],
                [
                    -0.44465,
                    0.10435,
                    -2.09201
                ]
            ],
            [
                [
                    -2.12392,
                    0.22419,
                    0.06664
                ],
                [
                    0.19289,
                    -2.39745,
                    -0.38116
                ],
                [
                    0.13195,
                    -0.43725,
                    -2.09201
                ]
            ],
            [
                [
                    -2.14847,
                    -0.20708,
                    0.29678
                ],
                [
                    -0.23847,
                    -2.3728,
                    0.24829
                ],
                [
                    0.31269,
                    0.3329,
                    -2.09201
                ]
            ]
        ]
    },
    "band_gap": 1.3061999999999996,
    "is_direct": false,
    "formula": "La2MgNiO6"
}