{
    "mp_id": "mvc-5897",
    "nelements": 3,
    "nsites": 14,
    "elements": [
        "Cu",
        "O",
        "Zn"
    ],
    "structure": {
        "@module": "pymatgen.core.structure",
        "@class": "Structure",
        "charge": null,
        "lattice": {
            "matrix": [
                [
                    -2.68205512,
                    2.68205512,
                    5.09168514
                ],
                [
                    2.68205512,
                    -2.68205512,
                    5.09168514
                ],
                [
                    2.68205512,
                    2.68205512,
                    -5.09168514
                ]
            ],
            "a": 6.349180805295535,
            "b": 6.349180805295535,
            "c": 6.349180805295535,
            "alpha": 130.02438622016888,
            "beta": 130.02438622016888,
            "gamma": 73.36778238387654,
            "volume": 146.50651209125152
        },
        "sites": [
            {
                "species": [
                    {
                        "element": "Zn",
                        "occu": 1
                    }
                ],
                "abc": [
                    0.0,
                    0.0,
                    0.0
                ],
                "xyz": [
                    0.0,
                    0.0,
                    0.0
                ],
                "label": "Zn",
                "properties": {}
            },
            {
                "species": [
                    {
                        "element": "Zn",
                        "occu": 1
                    }
                ],
                "abc": [
                    0.75,
                    0.25,
                    0.5
                ],
                "xyz": [
                    -2.220446049250313e-16,
                    2.6820551200000002,
                    2.54584257
                ],
                "label": "Zn",
                "properties": {}
            },
            {
                "species": [
                    {
                        "element": "Cu",
                        "occu": 1
                    }
                ],
                "abc": [
                    0.375,
                    0.625,
                    0.25
                ],
                "xyz": [
                    1.3410275599999997,
                    1.1102230246251565e-16,
                    3.8187638550000003
                ],
                "label": "Cu",
                "properties": {}
            },
            {
                "species": [
                    {
                        "element": "Cu",
                        "occu": 1
                    }
                ],
                "abc": [
                    0.875,
                    0.625,
                    0.25
                ],
                "xyz": [
                    1.1102230246251565e-16,
                    1.3410275599999997,
                    6.364606425
                ],
                "label": "Cu",
                "properties": {}
            },
            {
                "species": [
                    {
                        "element": "Cu",
                        "occu": 1
                    }
                ],
                "abc": [
                    0.375,
                    0.125,
                    0.75
                ],
                "xyz": [
                    1.34102756,
                    2.6820551200000002,
                    -1.2729212850000002
                ],
                "label": "Cu",
                "properties": {}
            },
            {
                "species": [
                    {
                        "element": "Cu",
                        "occu": 1
                    }
                ],
                "abc": [
                    0.375,
                    0.625,
                    0.75
                ],
                "xyz": [
                    2.68205512,
                    1.3410275600000001,
                    1.2729212849999998
                ],
                "label": "Cu",
                "properties": {}
            },
            {
                "species": [
                    {
                        "element": "O",
                        "occu": 1
                    }
                ],
                "abc": [
                    0.14521774,
                    0.37445459,
                    0.77076315
                ],
                "xyz": [
                    2.6820551199999993,
                    1.4524033855296556,
                    -1.2784753969844145
                ],
                "label": "O",
                "properties": {}
            },
            {
                "species": [
                    {
                        "element": "O",
                        "occu": 1
                    }
                ],
                "abc": [
                    0.62554541,
                    0.39630855,
                    0.77076315
                ],
                "xyz": [
                    1.4524033587091045,
                    2.6820551468205505,
                    1.2784753460675629
                ],
                "label": "O",
                "properties": {}
            },
            {
                "species": [
                    {
                        "element": "O",
                        "occu": 1
                    }
                ],
                "abc": [
                    0.62554541,
                    0.85478226,
                    0.22923685
                ],
                "xyz": [
                    1.2296517344703441,
                    -1.1102230246251565e-16,
                    6.3701605369844145
                ],
                "label": "O",
                "properties": {}
            },
            {
                "species": [
                    {
                        "element": "O",
                        "occu": 1
                    }
                ],
                "abc": [
                    0.60478226,
                    0.87554541,
                    0.72923685
                ],
                "xyz": [
                    2.68205512,
                    1.2296517344703441,
                    3.824317966984414
                ],
                "label": "O",
                "properties": {}
            },
            {
                "species": [
                    {
                        "element": "O",
                        "occu": 1
                    }
                ],
                "abc": [
                    0.14630855,
                    0.87554541,
                    0.27076315
                ],
                "xyz": [
                    2.682055146820551,
                    -1.2296517612908953,
                    3.824317916067563
                ],
                "label": "O",
                "properties": {}
            },
            {
                "species": [
                    {
                        "element": "O",
                        "occu": 1
                    }
                ],
                "abc": [
                    0.12445459,
                    0.85369145,
                    0.72923685
                ],
                "xyz": [
                    3.911706881290895,
                    -2.6820551113360125e-08,
                    1.2673672239324372
                ],
                "label": "O",
                "properties": {}
            },
            {
                "species": [
                    {
                        "element": "O",
                        "occu": 1
                    }
                ],
                "abc": [
                    0.60369145,
                    0.37445459,
                    0.22923685
                ],
                "xyz": [
                    -2.6820551224382427e-08,
                    1.2296517612908953,
                    3.8132097939324368
                ],
                "label": "O",
                "properties": {}
            },
            {
                "species": [
                    {
                        "element": "O",
                        "occu": 1
                    }
                ],
                "abc": [
                    0.12445459,
                    0.39521774,
                    0.27076315
                ],
                "xyz": [
                    1.4524033855296556,
                    1.1102230246251565e-16,
                    1.2673671730155853
                ],
                "label": "O",
                "properties": {}
            }
        ]
    },
    "spacegroup": {
        "source": "spglib",
        "symbol": "I4_1/amd",
        "number": 141,
        "point_group": "4/mmm",
        "crystal_system": "tetragonal",
        "hall": "I 4bw 2bw -1bw"
    },
    "dielectric": {
        "epsilon_ionic": [
            [
                4.00040095,
                1e-08,
                -2e-08
            ],
            [
                1e-08,
                4.0002735,
                -2e-08
            ],
            [
                -2e-08,
                -2e-08,
                2.32930677
            ]
        ],
        "epsilon_ionic_avg": 3.4433270733333323,
        "epsilon_ionic_eig": [
            2.329306769999999,
            4.000400950000784,
            4.0002734999992136
        ],
        "epsilon_electronic": [
            [
                9.37058739,
                0.0,
                0.0
            ],
            [
                0.0,
                9.37058739,
                0.0
            ],
            [
                0.0,
                0.0,
                5.01508479
            ]
        ],
        "epsilon_electronic_avg": 7.91875319,
        "epsilon_electronic_eig": [
            9.37058739,
            9.37058739,
            5.01508479
        ]
    },
    "phonon": {
        "lowest_freq": -0.13951416054536478,
        "frequency": [
            -0.13951416054536478,
            -0.05820518896878525,
            -0.05820518896878525,
            2.723386190827802,
            2.723386190827802,
            4.157470498536681,
            4.367788189824876,
            4.367788189824876,
            4.378270247491776,
            4.378270247491776,
            4.4969608667019045,
            5.3044024061302855,
            6.133243982324036,
            6.133243982324036,
            7.229398582568346,
            7.9097823210619715,
            7.983831547387098,
            8.036776020816069,
            8.036776020816069,
            9.426119865678686,
            10.075027963024256,
            10.72429387429723,
            10.72429387429723,
            10.735442301709732,
            11.500947968335355,
            12.841362889712933,
            14.120793968627288,
            14.178513210332376,
            15.442089481866226,
            15.442089481866226,
            17.464622823784815,
            17.464622823784815,
            17.55899834405395,
            18.212429074663675,
            18.38159254864638,
            18.38159254864638,
            19.066280327009384,
            19.626510073076396,
            19.71382063374843,
            20.360105448905948,
            20.360105448905948,
            20.484824345790194
        ]
    },
    "born_effective_charge": {
        "avg_abs_trace": 1.7776138095238097,
        "tensors": [
            [
                [
                    2.4893,
                    -0.0,
                    -5e-05
                ],
                [
                    0.0,
                    2.48932,
                    -2e-05
                ],
                [
                    0.0,
                    -0.0,
                    1.97947
                ]
            ],
            [
                [
                    2.4893,
                    -0.0,
                    5e-05
                ],
                [
                    0.0,
                    2.48932,
                    2e-05
                ],
                [
                    0.0,
                    -0.0,
                    1.97947
                ]
            ],
            [
                [
                    3.86067,
                    -0.0,
                    -0.2831
                ],
                [
                    0.0,
                    0.79541,
                    -0.0
                ],
                [
                    0.25086,
                    -0.0,
                    1.19741
                ]
            ],
            [
                [
                    0.7954,
                    -0.0,
                    -0.0
                ],
                [
                    0.0,
                    3.86055,
                    0.28313
                ],
                [
                    0.0,
                    -0.25086,
                    1.19741
                ]
            ],
            [
                [
                    3.86067,
                    -0.0,
                    0.2831
                ],
                [
                    0.0,
                    0.79541,
                    -0.0
                ],
                [
                    -0.25086,
                    -0.0,
                    1.19741
                ]
            ],
            [
                [
                    0.7954,
                    -0.0,
                    -0.0
                ],
                [
                    0.0,
                    3.86055,
                    -0.28313
                ],
                [
                    0.0,
                    0.25086,
                    1.19741
                ]
            ],
            [
                [
                    -2.23042,
                    -0.00036,
                    -0.00012
                ],
                [
                    0.0,
                    -1.3422,
                    -0.22913
                ],
                [
                    0.0,
                    -0.30855,
                    -1.09352
                ]
            ],
            [
                [
                    -1.34198,
                    -0.0,
                    0.22915
                ],
                [
                    -3e-05,
                    -2.23033,
                    8e-05
                ],
                [
                    0.30831,
                    -0.0,
                    -1.09362
                ]
            ],
            [
                [
                    -1.34256,
                    -0.0,
                    -0.22891
                ],
                [
                    3e-05,
                    -2.23033,
                    8e-05
                ],
                [
                    -0.30831,
                    -0.0,
                    -1.09362
                ]
            ],
            [
                [
                    -2.23042,
                    0.00036,
                    0.00012
                ],
                [
                    0.0,
                    -1.34243,
                    -0.22894
                ],
                [
                    -0.0,
                    -0.30831,
                    -1.09362
                ]
            ],
            [
                [
                    -2.23042,
                    -0.00036,
                    0.00012
                ],
                [
                    -0.0,
                    -1.3422,
                    0.22913
                ],
                [
                    -0.0,
                    0.30831,
                    -1.09362
                ]
            ],
            [
                [
                    -1.34256,
                    0.0,
                    0.22891
                ],
                [
                    3e-05,
                    -2.23033,
                    -8e-05
                ],
                [
                    0.30855,
                    -0.0,
                    -1.09352
                ]
            ],
            [
                [
                    -2.23042,
                    0.00036,
                    -0.00012
                ],
                [
                    0.0,
                    -1.34243,
                    0.22894
                ],
                [
                    0.0,
                    0.30855,
                    -1.09352
                ]
            ],
            [
                [
                    -1.34198,
                    -0.0,
                    -0.22915
                ],
                [
                    -3e-05,
                    -2.23033,
                    -8e-05
                ],
                [
                    -0.30855,
                    -0.0,
                    -1.09352
                ]
            ]
        ]
    },
    "band_gap": 0.7241999999999997,
    "is_direct": false,
    "formula": "Zn(CuO2)2"
}